
     Program PWSCF v.6.6 starts on  9Feb2024 at  3: 9: 9 

     This program is part of the open-source Quantum ESPRESSO suite
     for quantum simulation of materials; please cite
         "P. Giannozzi et al., J. Phys.:Condens. Matter 21 395502 (2009);
         "P. Giannozzi et al., J. Phys.:Condens. Matter 29 465901 (2017);
          URL http://www.quantum-espresso.org", 
     in publications or presentations arising from this work. More details at
     http://www.quantum-espresso.org/quote

     Parallel version (MPI & OpenMP), running on       1 processor cores
     Number of MPI processes:                 1
     Threads/MPI process:                     1

     MPI processes distributed on     1 nodes
     Fft bands division:     nmany     =       1
     Waiting for input...
     Reading input from standard input

     Current dimensions of program PWSCF are:
     Max number of different atomic species (ntypx) = 10
     Max number of k-points (npk) =  40000
     Max angular momentum in pseudopotentials (lmaxx) =  3
     file K.pbe-spn-kjpaw_psl.1.0.0.UPF: wavefunction(s)  3S renormalized

     Subspace diagonalization in iterative solution of the eigenvalue problem:
     a serial algorithm will be used


     G-vector sticks info
     --------------------
     sticks:   dense  smooth     PW     G-vecs:    dense   smooth      PW
     Sum        9729    7785   2085               721415   516171   71591



     bravais-lattice index     =            0
     lattice parameter (alat)  =      20.1787  a.u.
     unit-cell volume          =    8216.3521 (a.u.)^3
     number of atoms/cell      =           16
     number of atomic types    =            1
     number of electrons       =       144.00
     number of Kohn-Sham states=           86
     kinetic-energy cutoff     =      60.0000  Ry
     charge density cutoff     =     300.0000  Ry
     convergence threshold     =      1.0E-06
     mixing beta               =       0.7000
     number of iterations used =            8  plain     mixing
     Exchange-correlation= SLA PW PBX PBC
                           (   1   4   3   4   0   0   0)

     celldm(1)=  20.178692  celldm(2)=   0.000000  celldm(3)=   0.000000
     celldm(4)=   0.000000  celldm(5)=   0.000000  celldm(6)=   0.000000

     crystal axes: (cart. coord. in units of alat)
               a(1) = (   1.000000   0.000000   0.000000 )  
               a(2) = (   0.000000   1.000000   0.000000 )  
               a(3) = (   0.000000   0.000000   1.000000 )  

     reciprocal axes: (cart. coord. in units 2 pi/alat)
               b(1) = (  1.000000  0.000000  0.000000 )  
               b(2) = (  0.000000  1.000000  0.000000 )  
               b(3) = (  0.000000  0.000000  1.000000 )  


     PseudoPot. # 1 for K  read from file:
     /global/home/hpc5146/K.pbe-spn-kjpaw_psl.1.0.0.UPF
     MD5 check sum: 7d58810084cac21f60fbe77ea2b688fd
     Pseudo is Projector augmented-wave + core cor, Zval =  9.0
     Generated using "atomic" code by A. Dal Corso v.5.1
     Shape of augmentation charge: PSQ
     Using radial grid of 1165 points,  6 beta functions with: 
                l(1) =   0
                l(2) =   0
                l(3) =   1
                l(4) =   1
                l(5) =   2
                l(6) =   2
     Q(r) pseudized with 0 coefficients 


     atomic species   valence    mass     pseudopotential
        K              9.00    39.09830     K ( 1.00)

     No symmetry found



   Cartesian axes

     site n.     atom                  positions (alat units)
         1           K   tau(   1) = (   0.3882129   0.2804380   0.1061663  )
         2           K   tau(   2) = (   0.4396928   0.0718005   0.5306311  )
         3           K   tau(   3) = (   0.3769874   0.4501418   0.4739784  )
         4           K   tau(   4) = (   0.9910559   0.8487900   0.1438901  )
         5           K   tau(   5) = (   0.7373162   0.2315236   0.1571669  )
         6           K   tau(   6) = (   0.9889669   0.4630254   0.4138273  )
         7           K   tau(   7) = (   0.3256968   0.6179544   0.2981170  )
         8           K   tau(   8) = (   0.0038262   0.5412614   0.8825675  )
         9           K   tau(   9) = (   0.4038833   0.9264938   0.1991806  )
        10           K   tau(  10) = (   0.7251861   0.6454361   0.2395306  )
        11           K   tau(  11) = (   0.6853596   0.7384070   0.6051051  )
        12           K   tau(  12) = (   0.1350726   0.2123557   0.8259623  )
        13           K   tau(  13) = (   0.6845784   0.3429957   0.7869767  )
        14           K   tau(  14) = (   0.0425178   0.9168115   0.5206636  )
        15           K   tau(  15) = (   0.3504360   0.7018024   0.9364307  )
        16           K   tau(  16) = (   0.7212111   0.0107625   0.8798056  )

     number of k points=    36  Gaussian smearing, width (Ry)=  0.0100
                       cart. coord. in units 2pi/alat
        k(    1) = (   0.0000000   0.0000000   0.0000000), wk =   0.0312500
        k(    2) = (   0.0000000   0.0000000   0.2500000), wk =   0.0625000
        k(    3) = (   0.0000000   0.0000000  -0.5000000), wk =   0.0312500
        k(    4) = (   0.0000000   0.2500000   0.2500000), wk =   0.0625000
        k(    5) = (   0.0000000   0.2500000  -0.5000000), wk =   0.0625000
        k(    6) = (   0.0000000  -0.5000000  -0.5000000), wk =   0.0312500
        k(    7) = (   0.2500000   0.2500000   0.2500000), wk =   0.0625000
        k(    8) = (   0.2500000   0.2500000  -0.5000000), wk =   0.0625000
        k(    9) = (   0.2500000  -0.5000000  -0.5000000), wk =   0.0625000
        k(   10) = (  -0.5000000  -0.5000000  -0.5000000), wk =   0.0312500
        k(   11) = (   0.2500000   0.0000000   0.0000000), wk =   0.0625000
        k(   12) = (   0.0000000   0.2500000   0.0000000), wk =   0.0625000
        k(   13) = (  -0.5000000   0.0000000   0.0000000), wk =   0.0312500
        k(   14) = (   0.0000000  -0.5000000   0.0000000), wk =   0.0312500
        k(   15) = (   0.0000000  -0.2500000   0.2500000), wk =   0.0625000
        k(   16) = (   0.2500000   0.0000000  -0.2500000), wk =   0.0625000
        k(   17) = (  -0.2500000   0.0000000  -0.2500000), wk =   0.0625000
        k(   18) = (   0.2500000  -0.2500000   0.0000000), wk =   0.0625000
        k(   19) = (  -0.2500000  -0.2500000   0.0000000), wk =   0.0625000
        k(   20) = (   0.2500000   0.0000000   0.5000000), wk =   0.0625000
        k(   21) = (  -0.5000000  -0.2500000   0.0000000), wk =   0.0625000
        k(   22) = (   0.0000000  -0.5000000   0.2500000), wk =   0.0625000
        k(   23) = (   0.2500000  -0.5000000   0.0000000), wk =   0.0625000
        k(   24) = (  -0.5000000   0.0000000   0.2500000), wk =   0.0625000
        k(   25) = (  -0.5000000   0.0000000   0.5000000), wk =   0.0312500
        k(   26) = (  -0.5000000   0.5000000   0.0000000), wk =   0.0312500
        k(   27) = (  -0.2500000  -0.2500000   0.2500000), wk =   0.0625000
        k(   28) = (  -0.2500000   0.2500000  -0.2500000), wk =   0.0625000
        k(   29) = (   0.2500000  -0.2500000  -0.2500000), wk =   0.0625000
        k(   30) = (  -0.2500000   0.2500000   0.5000000), wk =   0.0625000
        k(   31) = (  -0.5000000  -0.2500000   0.2500000), wk =   0.0625000
        k(   32) = (   0.5000000  -0.2500000  -0.2500000), wk =   0.0625000
        k(   33) = (  -0.2500000  -0.5000000   0.2500000), wk =   0.0625000
        k(   34) = (  -0.2500000   0.5000000  -0.2500000), wk =   0.0625000
        k(   35) = (  -0.5000000   0.2500000   0.5000000), wk =   0.0625000
        k(   36) = (  -0.5000000   0.5000000   0.2500000), wk =   0.0625000

     Dense  grid:   721415 G-vectors     FFT dimensions: ( 120, 120, 120)

     Smooth grid:   516171 G-vectors     FFT dimensions: ( 100, 100, 100)

     Estimated max dynamical RAM per process >       6.24 GB

     Check: negative core charge=   -0.000001

     Initial potential from superposition of free atoms

     starting charge  143.69870, renormalised to  144.00000
     Starting wfcs are  128 randomized atomic wfcs
     Checking if some PAW data can be deallocated... 

     total cpu time spent up to now is      183.5 secs

     Self-consistent Calculation

     iteration #  1     ecut=    60.00 Ry     beta= 0.70
     Davidson diagonalization with overlap
     ethr =  1.00E-02,  avg # of iterations =  3.9

     Threshold (ethr) on eigenvalues was too large:
     Diagonalizing with lowered threshold

     Davidson diagonalization with overlap
     c_bands:  1 eigenvalues not converged
     c_bands:  1 eigenvalues not converged
     ethr =  2.74E-05,  avg # of iterations = 12.9

     total cpu time spent up to now is     1135.7 secs

     total energy              =   -1807.92850820 Ry
     estimated scf accuracy    <       0.05507893 Ry

     iteration #  2     ecut=    60.00 Ry     beta= 0.70
     Davidson diagonalization with overlap
     ethr =  3.82E-05,  avg # of iterations =  5.8

     total cpu time spent up to now is     1594.5 secs

     total energy              =   -1807.92177798 Ry
     estimated scf accuracy    <       0.10415228 Ry

     iteration #  3     ecut=    60.00 Ry     beta= 0.70
     Davidson diagonalization with overlap
     ethr =  3.82E-05,  avg # of iterations =  4.8

     total cpu time spent up to now is     1959.2 secs

     total energy              =   -1807.94221563 Ry
     estimated scf accuracy    <       0.02045479 Ry

     iteration #  4     ecut=    60.00 Ry     beta= 0.70
     Davidson diagonalization with overlap
     ethr =  1.42E-05,  avg # of iterations =  2.8

     total cpu time spent up to now is     2285.6 secs

     total energy              =   -1807.94510148 Ry
     estimated scf accuracy    <       0.00144552 Ry

     iteration #  5     ecut=    60.00 Ry     beta= 0.70
     Davidson diagonalization with overlap
     ethr =  1.00E-06,  avg # of iterations =  8.0

     total cpu time spent up to now is     2686.9 secs

     total energy              =   -1807.94531094 Ry
     estimated scf accuracy    <       0.00102724 Ry

     iteration #  6     ecut=    60.00 Ry     beta= 0.70
     Davidson diagonalization with overlap
     ethr =  7.13E-07,  avg # of iterations =  2.7

     total cpu time spent up to now is     3014.1 secs

     total energy              =   -1807.94550104 Ry
     estimated scf accuracy    <       0.00012413 Ry

     iteration #  7     ecut=    60.00 Ry     beta= 0.70
     Davidson diagonalization with overlap
     ethr =  8.62E-08,  avg # of iterations =  2.9

     total cpu time spent up to now is     3345.8 secs

     total energy              =   -1807.94552076 Ry
     estimated scf accuracy    <       0.00000828 Ry

     iteration #  8     ecut=    60.00 Ry     beta= 0.70
     Davidson diagonalization with overlap
     ethr =  5.75E-09,  avg # of iterations =  4.3

     total cpu time spent up to now is     3749.2 secs

     total energy              =   -1807.94552226 Ry
     estimated scf accuracy    <       0.00000848 Ry

     iteration #  9     ecut=    60.00 Ry     beta= 0.70
     Davidson diagonalization with overlap
     ethr =  5.75E-09,  avg # of iterations =  2.5

     total cpu time spent up to now is     4073.3 secs

     End of self-consistent calculation

          k = 0.0000 0.0000 0.0000 ( 64373 PWs)   bands (ev):

   -31.3885 -31.0399 -30.6819 -30.6373 -30.6361 -30.6223 -30.6043 -30.6020
   -30.5903 -30.5890 -30.5841 -30.5745 -30.5680 -30.5663 -30.5468 -30.5380
   -15.6563 -14.7821 -14.7698 -14.5028 -14.4871 -14.2793 -14.2171 -14.2132
   -14.1864 -14.1703 -14.1653 -14.1519 -14.1431 -14.1372 -14.1307 -14.1180
   -14.1118 -14.1066 -14.1047 -14.0977 -14.0950 -14.0844 -14.0819 -14.0804
   -14.0718 -14.0678 -14.0653 -14.0602 -14.0590 -14.0558 -14.0540 -14.0527
   -14.0501 -14.0484 -14.0460 -14.0430 -14.0372 -14.0350 -14.0318 -14.0300
   -14.0241 -14.0218 -14.0108 -14.0082 -14.0010 -14.0001 -13.9894 -13.9856
    -0.4507   0.8055   0.9063   0.9770   1.0178   1.0561   1.2086   2.0681
     2.0893   2.1559   2.1707   2.2058   2.2145   2.2461   2.2796   2.3042
     2.3430   2.3995   2.5060   3.0215   3.1073   3.1375

          k = 0.0000 0.0000 0.2500 ( 64474 PWs)   bands (ev):

   -31.3885 -31.0399 -30.6819 -30.6373 -30.6361 -30.6223 -30.6043 -30.6020
   -30.5903 -30.5890 -30.5841 -30.5745 -30.5680 -30.5663 -30.5468 -30.5380
   -15.6563 -14.7821 -14.7698 -14.5028 -14.4872 -14.2793 -14.2171 -14.2131
   -14.1863 -14.1701 -14.1657 -14.1514 -14.1433 -14.1370 -14.1306 -14.1186
   -14.1110 -14.1072 -14.1048 -14.0976 -14.0951 -14.0845 -14.0818 -14.0807
   -14.0739 -14.0683 -14.0650 -14.0601 -14.0588 -14.0559 -14.0535 -14.0521
   -14.0492 -14.0473 -14.0445 -14.0432 -14.0369 -14.0355 -14.0321 -14.0309
   -14.0240 -14.0218 -14.0107 -14.0084 -14.0012 -14.0002 -13.9898 -13.9855
    -0.3623   0.3790   0.9836   1.0409   1.0753   1.1776   1.6430   1.6982
     1.7313   1.7882   1.8203   2.2544   2.2969   2.3147   2.3556   2.7187
     2.7470   2.7943   2.8438   2.8570   2.8948   2.9379

          k = 0.0000 0.0000-0.5000 ( 64466 PWs)   bands (ev):

   -31.3885 -31.0399 -30.6819 -30.6373 -30.6361 -30.6223 -30.6043 -30.6020
   -30.5903 -30.5890 -30.5841 -30.5745 -30.5680 -30.5663 -30.5468 -30.5380
   -15.6563 -14.7821 -14.7698 -14.5028 -14.4872 -14.2792 -14.2171 -14.2131
   -14.1861 -14.1698 -14.1660 -14.1509 -14.1435 -14.1369 -14.1304 -14.1193
   -14.1101 -14.1073 -14.1060 -14.0964 -14.0956 -14.0848 -14.0820 -14.0810
   -14.0757 -14.0683 -14.0649 -14.0599 -14.0589 -14.0560 -14.0527 -14.0522
   -14.0488 -14.0454 -14.0436 -14.0430 -14.0370 -14.0354 -14.0330 -14.0315
   -14.0239 -14.0217 -14.0106 -14.0086 -14.0013 -14.0004 -13.9901 -13.9853
    -0.1765   0.0325   1.1208   1.1562   1.2525   1.3479   1.3778   1.4014
     1.4781   1.5255   2.3437   2.3642   2.4152   2.4722   2.5114   2.5249
     2.5728   2.6313   2.6552   2.7017   3.2043   3.2457

          k = 0.0000 0.2500 0.2500 ( 64511 PWs)   bands (ev):

   -31.3885 -31.0399 -30.6819 -30.6373 -30.6361 -30.6223 -30.6043 -30.6020
   -30.5903 -30.5890 -30.5841 -30.5745 -30.5680 -30.5663 -30.5468 -30.5380
   -15.6564 -14.7822 -14.7698 -14.5032 -14.4871 -14.2796 -14.2169 -14.2114
   -14.1859 -14.1699 -14.1646 -14.1525 -14.1436 -14.1364 -14.1304 -14.1186
   -14.1111 -14.1066 -14.1060 -14.0974 -14.0960 -14.0856 -14.0827 -14.0806
   -14.0756 -14.0674 -14.0656 -14.0602 -14.0589 -14.0553 -14.0530 -14.0515
   -14.0487 -14.0467 -14.0438 -14.0431 -14.0372 -14.0343 -14.0320 -14.0315
   -14.0233 -14.0217 -14.0127 -14.0082 -14.0018 -14.0000 -13.9899 -13.9854
    -0.2706   0.4036   0.5331   1.0919   1.1733   1.2240   1.7056   1.7261
     1.7752   1.8110   1.8770   1.9568   2.3519   2.3688   2.3878   2.4242
     2.7501   2.8309   2.8959   3.0092   3.1918   3.2580

          k = 0.0000 0.2500-0.5000 ( 64494 PWs)   bands (ev):

   -31.3885 -31.0399 -30.6819 -30.6373 -30.6361 -30.6223 -30.6043 -30.6020
   -30.5903 -30.5890 -30.5841 -30.5745 -30.5680 -30.5663 -30.5468 -30.5380
   -15.6564 -14.7822 -14.7698 -14.5032 -14.4871 -14.2795 -14.2169 -14.2114
   -14.1862 -14.1699 -14.1648 -14.1526 -14.1438 -14.1362 -14.1303 -14.1188
   -14.1114 -14.1067 -14.1042 -14.0980 -14.0958 -14.0844 -14.0817 -14.0804
   -14.0745 -14.0686 -14.0661 -14.0603 -14.0588 -14.0564 -14.0529 -14.0527
   -14.0491 -14.0467 -14.0453 -14.0427 -14.0364 -14.0346 -14.0324 -14.0311
   -14.0229 -14.0216 -14.0128 -14.0084 -14.0016 -13.9998 -13.9895 -13.9855
    -0.0899   0.1184   0.6589   0.8287   1.2673   1.3795   1.4663   1.5159
     1.9198   1.9584   2.0040   2.0784   2.1139   2.1402   2.5470   2.6304
     2.8799   2.9471   3.0255   3.0778   3.1288   3.2252

          k = 0.0000-0.5000-0.5000 ( 64616 PWs)   bands (ev):

   -31.3885 -31.0399 -30.6819 -30.6373 -30.6361 -30.6223 -30.6043 -30.6020
   -30.5903 -30.5890 -30.5841 -30.5745 -30.5680 -30.5663 -30.5468 -30.5380
   -15.6564 -14.7822 -14.7698 -14.5035 -14.4871 -14.2798 -14.2169 -14.2093
   -14.1863 -14.1699 -14.1634 -14.1546 -14.1442 -14.1355 -14.1302 -14.1186
   -14.1122 -14.1063 -14.1020 -14.1000 -14.0959 -14.0841 -14.0823 -14.0802
   -14.0714 -14.0692 -14.0665 -14.0610 -14.0587 -14.0570 -14.0540 -14.0530
   -14.0499 -14.0481 -14.0463 -14.0418 -14.0359 -14.0333 -14.0323 -14.0315
   -14.0229 -14.0208 -14.0141 -14.0080 -14.0020 -13.9996 -13.9888 -13.9856
     0.0868   0.2647   0.3826   0.4633   1.4422   1.4933   1.5837   1.6608
     1.7119   1.7434   1.7764   1.8320   2.5980   2.6536   2.6871   2.7191
     2.7508   2.8732   2.9485   2.9659   3.1638   3.2382

          k = 0.2500 0.2500 0.2500 ( 64538 PWs)   bands (ev):

   -31.3885 -31.0399 -30.6819 -30.6373 -30.6361 -30.6223 -30.6043 -30.6020
   -30.5903 -30.5890 -30.5841 -30.5745 -30.5680 -30.5663 -30.5468 -30.5380
   -15.6564 -14.7822 -14.7698 -14.5032 -14.4871 -14.2795 -14.2171 -14.2112
   -14.1859 -14.1697 -14.1646 -14.1540 -14.1446 -14.1345 -14.1300 -14.1179
   -14.1118 -14.1070 -14.1044 -14.0988 -14.0948 -14.0855 -14.0826 -14.0811
   -14.0754 -14.0681 -14.0659 -14.0604 -14.0592 -14.0564 -14.0530 -14.0511
   -14.0494 -14.0467 -14.0439 -14.0415 -14.0371 -14.0338 -14.0326 -14.0318
   -14.0231 -14.0213 -14.0125 -14.0085 -14.0021 -13.9995 -13.9899 -13.9854
    -0.1792   0.4643   0.5388   0.6666   1.1755   1.2564   1.3556   1.7998
     1.8373   1.9086   1.9841   2.3479   2.4028   2.4150   2.4743   2.5073
     2.5379   2.8775   2.9266   2.9783   3.1844   3.2955

          k = 0.2500 0.2500-0.5000 ( 64426 PWs)   bands (ev):

   -31.3885 -31.0399 -30.6819 -30.6373 -30.6361 -30.6223 -30.6043 -30.6020
   -30.5903 -30.5890 -30.5841 -30.5745 -30.5680 -30.5663 -30.5468 -30.5380
   -15.6564 -14.7822 -14.7698 -14.5032 -14.4871 -14.2795 -14.2170 -14.2111
   -14.1862 -14.1698 -14.1647 -14.1540 -14.1445 -14.1346 -14.1298 -14.1181
   -14.1124 -14.1065 -14.1028 -14.0990 -14.0954 -14.0841 -14.0823 -14.0801
   -14.0742 -14.0692 -14.0662 -14.0614 -14.0593 -14.0572 -14.0537 -14.0518
   -14.0496 -14.0467 -14.0452 -14.0414 -14.0357 -14.0344 -14.0330 -14.0314
   -14.0228 -14.0213 -14.0125 -14.0087 -14.0019 -13.9994 -13.9895 -13.9855
    -0.0016   0.2059   0.6620   0.7964   0.9263   0.9428   1.4486   1.5917
     1.9481   2.0494   2.1756   2.1911   2.4879   2.5805   2.6174   2.6743
     2.7351   2.7750   3.0378   3.0813   3.0947   3.1767

          k = 0.2500-0.5000-0.5000 ( 64524 PWs)   bands (ev):

   -31.3885 -31.0399 -30.6819 -30.6373 -30.6361 -30.6223 -30.6043 -30.6021
   -30.5903 -30.5890 -30.5841 -30.5745 -30.5680 -30.5663 -30.5468 -30.5380
   -15.6564 -14.7822 -14.7698 -14.5035 -14.4870 -14.2798 -14.2168 -14.2094
   -14.1863 -14.1698 -14.1633 -14.1550 -14.1438 -14.1348 -14.1298 -14.1187
   -14.1133 -14.1067 -14.1028 -14.0994 -14.0949 -14.0854 -14.0820 -14.0800
   -14.0704 -14.0693 -14.0668 -14.0619 -14.0588 -14.0576 -14.0535 -14.0522
   -14.0497 -14.0483 -14.0462 -14.0422 -14.0358 -14.0337 -14.0322 -14.0316
   -14.0224 -14.0207 -14.0139 -14.0083 -14.0022 -13.9992 -13.9888 -13.9857
     0.1764   0.3434   0.4642   0.5401   0.9077   1.0826   1.1784   1.2605
     2.1281   2.2749   2.3672   2.4251   2.6574   2.7062   2.7517   2.7671
     2.8117   2.9131   2.9750   3.0097   3.0706   3.1337

          k =-0.5000-0.5000-0.5000 ( 64552 PWs)   bands (ev):

   -31.3885 -31.0399 -30.6819 -30.6373 -30.6361 -30.6223 -30.6042 -30.6021
   -30.5903 -30.5890 -30.5841 -30.5745 -30.5680 -30.5663 -30.5468 -30.5380
   -15.6564 -14.7822 -14.7698 -14.5035 -14.4870 -14.2799 -14.2167 -14.2095
   -14.1862 -14.1696 -14.1631 -14.1554 -14.1433 -14.1343 -14.1293 -14.1188
   -14.1143 -14.1071 -14.1032 -14.0992 -14.0938 -14.0871 -14.0813 -14.0797
   -14.0698 -14.0694 -14.0669 -14.0629 -14.0588 -14.0580 -14.0530 -14.0518
   -14.0491 -14.0488 -14.0462 -14.0426 -14.0356 -14.0341 -14.0322 -14.0317
   -14.0220 -14.0207 -14.0138 -14.0085 -14.0024 -13.9987 -13.9888 -13.9858
     0.3786   0.4793   0.5365   0.6602   0.6951   0.7498   0.8558   0.9665
     2.6625   2.7063   2.7511   2.7637   2.7894   2.8252   2.8734   2.9052
     2.9301   2.9664   2.9983   3.0113   3.0326   3.0757

          k = 0.2500 0.0000 0.0000 ( 64474 PWs)   bands (ev):

   -31.3885 -31.0399 -30.6819 -30.6373 -30.6361 -30.6223 -30.6043 -30.6020
   -30.5903 -30.5890 -30.5841 -30.5745 -30.5680 -30.5663 -30.5468 -30.5380
   -15.6563 -14.7821 -14.7699 -14.5028 -14.4871 -14.2793 -14.2174 -14.2128
   -14.1863 -14.1702 -14.1652 -14.1533 -14.1434 -14.1355 -14.1303 -14.1179
   -14.1124 -14.1065 -14.1044 -14.0985 -14.0950 -14.0846 -14.0817 -14.0803
   -14.0717 -14.0683 -14.0652 -14.0607 -14.0593 -14.0557 -14.0537 -14.0519
   -14.0507 -14.0482 -14.0458 -14.0431 -14.0372 -14.0352 -14.0323 -14.0300
   -14.0240 -14.0216 -14.0106 -14.0085 -14.0011 -13.9998 -13.9894 -13.9857
    -0.3581   0.3756   0.9326   1.0563   1.0982   1.2087   1.5928   1.6936
     1.7118   1.7750   1.8852   2.2827   2.3174   2.3271   2.3615   2.6795
     2.7529   2.7652   2.8029   2.8602   2.8942   2.9412

          k = 0.0000 0.2500 0.0000 ( 64474 PWs)   bands (ev):

   -31.3885 -31.0399 -30.6819 -30.6373 -30.6361 -30.6223 -30.6043 -30.6020
   -30.5903 -30.5890 -30.5841 -30.5745 -30.5680 -30.5663 -30.5468 -30.5380
   -15.6563 -14.7822 -14.7698 -14.5032 -14.4871 -14.2796 -14.2171 -14.2112
   -14.1861 -14.1701 -14.1643 -14.1529 -14.1435 -14.1366 -14.1306 -14.1181
   -14.1119 -14.1074 -14.1041 -14.0987 -14.0954 -14.0855 -14.0817 -14.0799
   -14.0745 -14.0679 -14.0656 -14.0600 -14.0588 -14.0557 -14.0536 -14.0514
   -14.0492 -14.0474 -14.0450 -14.0429 -14.0374 -14.0352 -14.0319 -14.0299
   -14.0237 -14.0217 -14.0122 -14.0082 -14.0017 -14.0000 -13.9895 -13.9855
    -0.3583   0.3741   0.9388   1.0725   1.1066   1.1758   1.6190   1.6745
     1.7526   1.7660   1.8636   2.2403   2.2986   2.3324   2.3433   2.7228
     2.7691   2.7861   2.8145   2.8381   2.8471   2.9356

          k =-0.5000 0.0000 0.0000 ( 64466 PWs)   bands (ev):

   -31.3885 -31.0399 -30.6819 -30.6373 -30.6361 -30.6223 -30.6043 -30.6020
   -30.5903 -30.5890 -30.5841 -30.5745 -30.5680 -30.5663 -30.5468 -30.5380
   -15.6563 -14.7821 -14.7699 -14.5028 -14.4871 -14.2793 -14.2177 -14.2125
   -14.1861 -14.1701 -14.1649 -14.1545 -14.1436 -14.1342 -14.1300 -14.1177
   -14.1128 -14.1064 -14.1039 -14.0993 -14.0950 -14.0846 -14.0819 -14.0799
   -14.0716 -14.0685 -14.0652 -14.0612 -14.0594 -14.0558 -14.0537 -14.0513
   -14.0508 -14.0481 -14.0456 -14.0432 -14.0371 -14.0354 -14.0328 -14.0299
   -14.0238 -14.0214 -14.0103 -14.0088 -14.0011 -13.9995 -13.9894 -13.9858
    -0.1389  -0.0086   1.1297   1.2078   1.2440   1.2826   1.3341   1.3582
     1.5033   1.6097   2.3287   2.4231   2.4308   2.5022   2.5114   2.5541
     2.5582   2.5890   2.6462   2.7044   3.1112   3.2598

          k = 0.0000-0.5000 0.0000 ( 64466 PWs)   bands (ev):

   -31.3885 -31.0399 -30.6819 -30.6373 -30.6361 -30.6223 -30.6043 -30.6021
   -30.5903 -30.5890 -30.5841 -30.5745 -30.5680 -30.5663 -30.5468 -30.5380
   -15.6564 -14.7822 -14.7698 -14.5036 -14.4870 -14.2799 -14.2172 -14.2090
   -14.1858 -14.1701 -14.1630 -14.1542 -14.1437 -14.1360 -14.1304 -14.1183
   -14.1124 -14.1075 -14.1050 -14.0985 -14.0959 -14.0859 -14.0824 -14.0804
   -14.0758 -14.0668 -14.0664 -14.0598 -14.0583 -14.0554 -14.0536 -14.0512
   -14.0481 -14.0479 -14.0442 -14.0417 -14.0377 -14.0339 -14.0325 -14.0302
   -14.0225 -14.0212 -14.0150 -14.0084 -14.0021 -14.0000 -13.9896 -13.9854
    -0.1415  -0.0069   1.1527   1.1845   1.2520   1.2965   1.3294   1.4036
     1.4782   1.5774   2.3514   2.3622   2.4480   2.4895   2.4965   2.5315
     2.5417   2.5643   2.6041   2.7375   3.2082   3.2289

          k = 0.0000-0.2500 0.2500 ( 64511 PWs)   bands (ev):

   -31.3885 -31.0399 -30.6819 -30.6373 -30.6361 -30.6223 -30.6043 -30.6020
   -30.5903 -30.5890 -30.5841 -30.5745 -30.5680 -30.5663 -30.5468 -30.5380
   -15.6564 -14.7822 -14.7698 -14.5032 -14.4871 -14.2796 -14.2171 -14.2112
   -14.1864 -14.1701 -14.1645 -14.1531 -14.1437 -14.1364 -14.1304 -14.1184
   -14.1122 -14.1061 -14.1037 -14.0987 -14.0955 -14.0844 -14.0822 -14.0790
   -14.0724 -14.0688 -14.0659 -14.0604 -14.0585 -14.0571 -14.0541 -14.0527
   -14.0497 -14.0482 -14.0457 -14.0424 -14.0365 -14.0354 -14.0321 -14.0299
   -14.0231 -14.0216 -14.0123 -14.0085 -14.0015 -13.9998 -13.9891 -13.9856
    -0.2719   0.3866   0.5717   1.0604   1.1431   1.2671   1.6519   1.7256
     1.7853   1.8033   1.8930   1.9874   2.3535   2.3873   2.3990   2.4350
     2.7492   2.8433   2.9092   2.9612   3.1623   3.2108

          k = 0.2500 0.0000-0.2500 ( 64511 PWs)   bands (ev):

   -31.3885 -31.0399 -30.6819 -30.6373 -30.6361 -30.6223 -30.6043 -30.6020
   -30.5903 -30.5890 -30.5841 -30.5745 -30.5680 -30.5663 -30.5468 -30.5380
   -15.6563 -14.7821 -14.7698 -14.5028 -14.4871 -14.2793 -14.2174 -14.2127
   -14.1861 -14.1702 -14.1656 -14.1530 -14.1437 -14.1354 -14.1302 -14.1181
   -14.1115 -14.1073 -14.1033 -14.0976 -14.0956 -14.0843 -14.0821 -14.0804
   -14.0740 -14.0688 -14.0653 -14.0612 -14.0596 -14.0562 -14.0536 -14.0516
   -14.0501 -14.0472 -14.0442 -14.0423 -14.0365 -14.0351 -14.0326 -14.0310
   -14.0240 -14.0214 -14.0106 -14.0087 -14.0010 -14.0001 -13.9898 -13.9855
    -0.2708   0.4004   0.5437   1.1057   1.1491   1.2080   1.6937   1.7364
     1.7699   1.8275   1.8897   1.9499   2.3291   2.3806   2.3966   2.4382
     2.7827   2.8558   2.9251   2.9866   3.1730   3.2464

          k =-0.2500 0.0000-0.2500 ( 64511 PWs)   bands (ev):

   -31.3885 -31.0399 -30.6819 -30.6373 -30.6361 -30.6223 -30.6043 -30.6020
   -30.5903 -30.5890 -30.5841 -30.5745 -30.5680 -30.5663 -30.5468 -30.5380
   -15.6563 -14.7821 -14.7698 -14.5028 -14.4871 -14.2793 -14.2173 -14.2129
   -14.1861 -14.1700 -14.1654 -14.1529 -14.1436 -14.1352 -14.1302 -14.1184
   -14.1116 -14.1063 -14.1056 -14.0987 -14.0942 -14.0853 -14.0812 -14.0807
   -14.0738 -14.0689 -14.0651 -14.0603 -14.0592 -14.0561 -14.0530 -14.0516
   -14.0486 -14.0478 -14.0445 -14.0433 -14.0373 -14.0353 -14.0324 -14.0309
   -14.0239 -14.0215 -14.0104 -14.0087 -14.0012 -14.0000 -13.9897 -13.9855
    -0.2708   0.4087   0.5315   1.0660   1.1691   1.2472   1.6551   1.7530
     1.7760   1.8437   1.8662   1.9614   2.3275   2.3756   2.4133   2.4394
     2.7965   2.8515   2.9179   2.9777   3.1512   3.2201

          k = 0.2500-0.2500 0.0000 ( 64511 PWs)   bands (ev):

   -31.3885 -31.0399 -30.6819 -30.6373 -30.6361 -30.6223 -30.6043 -30.6020
   -30.5903 -30.5890 -30.5841 -30.5745 -30.5680 -30.5663 -30.5468 -30.5380
   -15.6563 -14.7822 -14.7698 -14.5032 -14.4870 -14.2796 -14.2170 -14.2113
   -14.1860 -14.1702 -14.1646 -14.1537 -14.1432 -14.1360 -14.1300 -14.1182
   -14.1121 -14.1075 -14.1035 -14.0977 -14.0958 -14.0854 -14.0820 -14.0801
   -14.0743 -14.0682 -14.0657 -14.0611 -14.0589 -14.0563 -14.0531 -14.0518
   -14.0492 -14.0476 -14.0450 -14.0426 -14.0366 -14.0351 -14.0324 -14.0301
   -14.0234 -14.0213 -14.0121 -14.0086 -14.0016 -13.9998 -13.9895 -13.9856
    -0.2667   0.4191   0.5122   1.0700   1.1719   1.2417   1.6758   1.7608
     1.7806   1.8184   1.8757   1.9423   2.3335   2.3801   2.4067   2.4401
     2.8295   2.8496   2.8829   2.9600   3.1000   3.2454

          k =-0.2500-0.2500 0.0000 ( 64511 PWs)   bands (ev):

   -31.3885 -31.0399 -30.6819 -30.6373 -30.6361 -30.6223 -30.6043 -30.6020
   -30.5903 -30.5890 -30.5841 -30.5745 -30.5680 -30.5663 -30.5468 -30.5380
   -15.6563 -14.7822 -14.7698 -14.5032 -14.4870 -14.2796 -14.2173 -14.2110
   -14.1861 -14.1699 -14.1641 -14.1541 -14.1442 -14.1347 -14.1301 -14.1179
   -14.1127 -14.1067 -14.1047 -14.0996 -14.0949 -14.0851 -14.0811 -14.0807
   -14.0743 -14.0684 -14.0657 -14.0601 -14.0590 -14.0563 -14.0528 -14.0509
   -14.0494 -14.0479 -14.0447 -14.0427 -14.0377 -14.0352 -14.0322 -14.0299
   -14.0235 -14.0214 -14.0121 -14.0084 -14.0019 -13.9996 -13.9895 -13.9856
    -0.2659   0.4224   0.5029   1.0981   1.1608   1.2257   1.6955   1.7583
     1.7924   1.8271   1.8582   1.9253   2.3386   2.3703   2.3911   2.4398
     2.8035   2.8452   2.9111   2.9566   3.1644   3.2446

          k = 0.2500 0.0000 0.5000 ( 64494 PWs)   bands (ev):

   -31.3885 -31.0399 -30.6819 -30.6373 -30.6361 -30.6223 -30.6043 -30.6020
   -30.5903 -30.5890 -30.5841 -30.5745 -30.5680 -30.5663 -30.5468 -30.5380
   -15.6563 -14.7821 -14.7698 -14.5028 -14.4872 -14.2792 -14.2173 -14.2128
   -14.1859 -14.1700 -14.1658 -14.1526 -14.1439 -14.1352 -14.1300 -14.1186
   -14.1107 -14.1076 -14.1046 -14.0976 -14.0947 -14.0850 -14.0821 -14.0807
   -14.0759 -14.0692 -14.0648 -14.0605 -14.0598 -14.0564 -14.0532 -14.0515
   -14.0495 -14.0455 -14.0433 -14.0417 -14.0368 -14.0353 -14.0332 -14.0318
   -14.0239 -14.0214 -14.0105 -14.0089 -14.0011 -14.0003 -13.9901 -13.9854
    -0.0887   0.1200   0.6528   0.8251   1.2929   1.3444   1.4881   1.5059
     1.9169   1.9597   2.0053   2.0980   2.1143   2.1290   2.5438   2.6254
     2.9070   2.9664   3.0145   3.0731   3.1083   3.2263

          k =-0.5000-0.2500 0.0000 ( 64494 PWs)   bands (ev):

   -31.3885 -31.0399 -30.6819 -30.6373 -30.6361 -30.6223 -30.6043 -30.6020
   -30.5903 -30.5890 -30.5841 -30.5745 -30.5680 -30.5663 -30.5468 -30.5380
   -15.6563 -14.7822 -14.7698 -14.5032 -14.4870 -14.2796 -14.2172 -14.2111
   -14.1860 -14.1699 -14.1643 -14.1549 -14.1439 -14.1342 -14.1296 -14.1180
   -14.1129 -14.1068 -14.1041 -14.0988 -14.0950 -14.0850 -14.0820 -14.0802
   -14.0741 -14.0688 -14.0657 -14.0612 -14.0589 -14.0567 -14.0530 -14.0510
   -14.0494 -14.0478 -14.0448 -14.0426 -14.0368 -14.0351 -14.0328 -14.0301
   -14.0232 -14.0211 -14.0120 -14.0088 -14.0018 -13.9994 -13.9895 -13.9856
    -0.0464   0.0756   0.6674   0.7877   1.3233   1.3776   1.4473   1.5081
     1.9508   1.9745   2.0034   2.0411   2.1070   2.1551   2.5298   2.6134
     2.9371   3.0027   3.0480   3.0832   3.1308   3.1990

          k = 0.0000-0.5000 0.2500 ( 64494 PWs)   bands (ev):

   -31.3885 -31.0399 -30.6819 -30.6373 -30.6361 -30.6223 -30.6043 -30.6020
   -30.5903 -30.5890 -30.5841 -30.5745 -30.5680 -30.5663 -30.5468 -30.5380
   -15.6564 -14.7822 -14.7698 -14.5035 -14.4870 -14.2799 -14.2171 -14.2091
   -14.1861 -14.1700 -14.1632 -14.1544 -14.1439 -14.1357 -14.1304 -14.1184
   -14.1121 -14.1074 -14.1032 -14.0994 -14.0958 -14.0849 -14.0819 -14.0804
   -14.0744 -14.0677 -14.0667 -14.0603 -14.0583 -14.0563 -14.0537 -14.0519
   -14.0491 -14.0468 -14.0457 -14.0422 -14.0371 -14.0338 -14.0323 -14.0307
   -14.0223 -14.0213 -14.0145 -14.0082 -14.0020 -13.9998 -13.9893 -13.9855
    -0.0607   0.0783   0.7032   0.7905   1.3075   1.3671   1.4414   1.5009
     1.9438   1.9808   2.0311   2.0602   2.0918   2.1305   2.5335   2.6109
     2.8931   2.9502   3.0177   3.0750   3.1326   3.1983

          k = 0.2500-0.5000 0.0000 ( 64494 PWs)   bands (ev):

   -31.3885 -31.0399 -30.6819 -30.6373 -30.6361 -30.6223 -30.6042 -30.6021
   -30.5903 -30.5890 -30.5841 -30.5745 -30.5680 -30.5663 -30.5468 -30.5380
   -15.6564 -14.7822 -14.7698 -14.5035 -14.4870 -14.2799 -14.2171 -14.2091
   -14.1858 -14.1699 -14.1634 -14.1547 -14.1440 -14.1351 -14.1299 -14.1183
   -14.1126 -14.1074 -14.1044 -14.0986 -14.0955 -14.0855 -14.0829 -14.0805
   -14.0755 -14.0678 -14.0660 -14.0605 -14.0583 -14.0567 -14.0524 -14.0519
   -14.0482 -14.0479 -14.0444 -14.0415 -14.0373 -14.0337 -14.0327 -14.0304
   -14.0224 -14.0209 -14.0147 -14.0085 -14.0023 -13.9996 -13.9896 -13.9854
    -0.0488   0.0775   0.6676   0.7916   1.3211   1.3891   1.4428   1.5085
     1.9269   1.9822   2.0039   2.0739   2.0905   2.1389   2.5313   2.6094
     2.8791   2.9791   3.0069   3.0608   3.1020   3.2069

          k =-0.5000 0.0000 0.2500 ( 64494 PWs)   bands (ev):

   -31.3885 -31.0399 -30.6819 -30.6373 -30.6361 -30.6223 -30.6043 -30.6020
   -30.5903 -30.5890 -30.5841 -30.5745 -30.5680 -30.5663 -30.5468 -30.5380
   -15.6563 -14.7821 -14.7698 -14.5028 -14.4871 -14.2793 -14.2176 -14.2125
   -14.1859 -14.1701 -14.1653 -14.1543 -14.1440 -14.1340 -14.1298 -14.1177
   -14.1121 -14.1069 -14.1035 -14.0991 -14.0946 -14.0847 -14.0822 -14.0801
   -14.0739 -14.0693 -14.0653 -14.0613 -14.0597 -14.0563 -14.0535 -14.0511
   -14.0497 -14.0475 -14.0444 -14.0419 -14.0369 -14.0349 -14.0330 -14.0310
   -14.0239 -14.0212 -14.0103 -14.0090 -14.0011 -13.9998 -13.9897 -13.9856
    -0.0569   0.0773   0.7019   0.7786   1.3142   1.3633   1.4292   1.5069
     1.9425   2.0095   2.0235   2.0485   2.1027   2.1389   2.5342   2.6149
     2.9454   2.9699   3.0171   3.0702   3.1319   3.2297

          k =-0.5000 0.0000 0.5000 ( 64616 PWs)   bands (ev):

   -31.3885 -31.0399 -30.6819 -30.6373 -30.6361 -30.6223 -30.6043 -30.6020
   -30.5903 -30.5890 -30.5841 -30.5745 -30.5680 -30.5663 -30.5468 -30.5380
   -15.6563 -14.7821 -14.7698 -14.5028 -14.4871 -14.2792 -14.2175 -14.2125
   -14.1857 -14.1702 -14.1656 -14.1541 -14.1444 -14.1339 -14.1295 -14.1178
   -14.1112 -14.1075 -14.1031 -14.0987 -14.0941 -14.0846 -14.0828 -14.0806
   -14.0761 -14.0699 -14.0647 -14.0615 -14.0602 -14.0566 -14.0535 -14.0511
   -14.0497 -14.0456 -14.0435 -14.0404 -14.0364 -14.0350 -14.0336 -14.0320
   -14.0238 -14.0211 -14.0104 -14.0092 -14.0010 -14.0001 -13.9901 -13.9855
     0.0955   0.2717   0.3758   0.4466   1.4521   1.4793   1.6124   1.6575
     1.6812   1.7214   1.8015   1.8396   2.6326   2.6475   2.7206   2.7481
     2.7658   2.8718   2.8853   2.8995   3.2767   3.3078

          k =-0.5000 0.5000 0.0000 ( 64616 PWs)   bands (ev):

   -31.3885 -31.0399 -30.6819 -30.6373 -30.6361 -30.6223 -30.6042 -30.6021
   -30.5903 -30.5890 -30.5841 -30.5745 -30.5680 -30.5663 -30.5468 -30.5380
   -15.6564 -14.7822 -14.7698 -14.5035 -14.4869 -14.2799 -14.2170 -14.2092
   -14.1858 -14.1697 -14.1638 -14.1552 -14.1441 -14.1344 -14.1293 -14.1183
   -14.1130 -14.1073 -14.1039 -14.0985 -14.0949 -14.0856 -14.0833 -14.0803
   -14.0753 -14.0685 -14.0660 -14.0614 -14.0583 -14.0572 -14.0530 -14.0512
   -14.0484 -14.0481 -14.0443 -14.0416 -14.0367 -14.0334 -14.0332 -14.0306
   -14.0224 -14.0207 -14.0143 -14.0086 -14.0024 -13.9993 -13.9896 -13.9855
     0.1901   0.2523   0.2661   0.4618   1.5126   1.5498   1.5913   1.6284
     1.6591   1.6905   1.8023   1.8326   2.6124   2.6273   2.6834   2.7430
     2.8125   2.8616   2.8825   2.9407   3.2114   3.3064

          k =-0.2500-0.2500 0.2500 ( 64538 PWs)   bands (ev):

   -31.3885 -31.0399 -30.6819 -30.6373 -30.6361 -30.6223 -30.6043 -30.6020
   -30.5903 -30.5890 -30.5841 -30.5745 -30.5680 -30.5663 -30.5468 -30.5380
   -15.6564 -14.7822 -14.7698 -14.5032 -14.4871 -14.2796 -14.2173 -14.2109
   -14.1863 -14.1699 -14.1642 -14.1541 -14.1442 -14.1347 -14.1300 -14.1181
   -14.1131 -14.1064 -14.1033 -14.0993 -14.0956 -14.0843 -14.0817 -14.0789
   -14.0724 -14.0687 -14.0663 -14.0613 -14.0588 -14.0575 -14.0538 -14.0521
   -14.0500 -14.0478 -14.0457 -14.0421 -14.0368 -14.0350 -14.0325 -14.0300
   -14.0231 -14.0214 -14.0121 -14.0086 -14.0017 -13.9994 -13.9891 -13.9857
    -0.1805   0.4445   0.5606   0.6851   1.1478   1.2517   1.3717   1.7711
     1.8388   1.9106   1.9801   2.3293   2.3748   2.4328   2.4603   2.5457
     2.5678   2.8933   2.9350   3.0691   3.1957   3.2687

          k =-0.2500 0.2500-0.2500 ( 64538 PWs)   bands (ev):

   -31.3885 -31.0399 -30.6819 -30.6373 -30.6361 -30.6223 -30.6043 -30.6020
   -30.5903 -30.5890 -30.5841 -30.5745 -30.5680 -30.5663 -30.5468 -30.5380
   -15.6564 -14.7822 -14.7698 -14.5032 -14.4871 -14.2796 -14.2170 -14.2113
   -14.1862 -14.1700 -14.1645 -14.1538 -14.1431 -14.1357 -14.1298 -14.1187
   -14.1127 -14.1061 -14.1045 -14.0987 -14.0946 -14.0856 -14.0816 -14.0790
   -14.0721 -14.0687 -14.0660 -14.0613 -14.0585 -14.0571 -14.0532 -14.0523
   -14.0501 -14.0482 -14.0457 -14.0430 -14.0364 -14.0356 -14.0323 -14.0298
   -14.0230 -14.0213 -14.0122 -14.0088 -14.0013 -13.9996 -13.9891 -13.9857
    -0.1816   0.4581   0.5344   0.7045   1.1691   1.2138   1.3697   1.7764
     1.8444   1.8964   2.0057   2.3373   2.4033   2.4248   2.4673   2.4978
     2.6005   2.8728   2.9309   3.0631   3.1898   3.2622

          k = 0.2500-0.2500-0.2500 ( 64538 PWs)   bands (ev):

   -31.3885 -31.0399 -30.6819 -30.6373 -30.6361 -30.6223 -30.6043 -30.6020
   -30.5903 -30.5890 -30.5841 -30.5745 -30.5680 -30.5663 -30.5468 -30.5380
   -15.6564 -14.7822 -14.7698 -14.5032 -14.4871 -14.2796 -14.2168 -14.2115
   -14.1858 -14.1701 -14.1647 -14.1533 -14.1433 -14.1358 -14.1299 -14.1187
   -14.1113 -14.1074 -14.1048 -14.0973 -14.0953 -14.0854 -14.0834 -14.0808
   -14.0754 -14.0684 -14.0653 -14.0610 -14.0593 -14.0558 -14.0529 -14.0513
   -14.0491 -14.0467 -14.0437 -14.0422 -14.0366 -14.0345 -14.0321 -14.0317
   -14.0234 -14.0214 -14.0124 -14.0085 -14.0017 -13.9999 -13.9899 -13.9854
    -0.1799   0.4569   0.5544   0.6632   1.1803   1.2238   1.3921   1.7870
     1.8588   1.8893   1.9706   2.3210   2.3673   2.4282   2.4867   2.4947
     2.5978   2.8753   2.9488   3.0038   3.1883   3.2543

          k =-0.2500 0.2500 0.5000 ( 64426 PWs)   bands (ev):

   -31.3885 -31.0399 -30.6819 -30.6373 -30.6361 -30.6223 -30.6043 -30.6020
   -30.5903 -30.5890 -30.5841 -30.5745 -30.5680 -30.5663 -30.5468 -30.5380
   -15.6564 -14.7822 -14.7698 -14.5032 -14.4871 -14.2795 -14.2168 -14.2115
   -14.1860 -14.1700 -14.1647 -14.1533 -14.1431 -14.1355 -14.1298 -14.1193
   -14.1120 -14.1067 -14.1051 -14.0982 -14.0942 -14.0859 -14.0813 -14.0802
   -14.0743 -14.0690 -14.0659 -14.0611 -14.0590 -14.0564 -14.0529 -14.0517
   -14.0486 -14.0468 -14.0453 -14.0430 -14.0366 -14.0347 -14.0324 -14.0313
   -14.0228 -14.0214 -14.0125 -14.0087 -14.0014 -13.9997 -13.9895 -13.9855
    -0.0031   0.2047   0.6818   0.7908   0.8777   0.9841   1.4535   1.5760
     1.9618   2.0487   2.1439   2.2057   2.5165   2.5515   2.6424   2.6722
     2.7146   2.7766   3.0198   3.0762   3.1258   3.1971

          k =-0.5000-0.2500 0.2500 ( 64426 PWs)   bands (ev):

   -31.3885 -31.0399 -30.6819 -30.6373 -30.6361 -30.6223 -30.6043 -30.6020
   -30.5903 -30.5890 -30.5841 -30.5745 -30.5680 -30.5663 -30.5468 -30.5380
   -15.6564 -14.7822 -14.7698 -14.5031 -14.4870 -14.2796 -14.2172 -14.2111
   -14.1862 -14.1699 -14.1641 -14.1549 -14.1435 -14.1342 -14.1294 -14.1185
   -14.1136 -14.1064 -14.1041 -14.0989 -14.0949 -14.0854 -14.0815 -14.0788
   -14.0721 -14.0684 -14.0663 -14.0620 -14.0589 -14.0574 -14.0533 -14.0516
   -14.0499 -14.0482 -14.0458 -14.0427 -14.0366 -14.0352 -14.0328 -14.0299
   -14.0230 -14.0211 -14.0120 -14.0089 -14.0015 -13.9992 -13.9891 -13.9858
     0.0333   0.1589   0.7035   0.7740   0.8676   1.0042   1.4559   1.5513
     1.9852   2.0437   2.0972   2.2399   2.5537   2.5672   2.6204   2.6878
     2.7253   2.7752   2.9669   3.0831   3.1489   3.2475

          k = 0.5000-0.2500-0.2500 ( 64426 PWs)   bands (ev):

   -31.3885 -31.0399 -30.6819 -30.6373 -30.6361 -30.6223 -30.6043 -30.6020
   -30.5903 -30.5890 -30.5841 -30.5745 -30.5680 -30.5663 -30.5468 -30.5380
   -15.6564 -14.7822 -14.7698 -14.5031 -14.4870 -14.2796 -14.2170 -14.2112
   -14.1858 -14.1699 -14.1647 -14.1547 -14.1442 -14.1340 -14.1294 -14.1180
   -14.1121 -14.1073 -14.1036 -14.0986 -14.0941 -14.0855 -14.0836 -14.0807
   -14.0753 -14.0691 -14.0657 -14.0616 -14.0594 -14.0564 -14.0533 -14.0507
   -14.0497 -14.0467 -14.0439 -14.0411 -14.0363 -14.0341 -14.0326 -14.0320
   -14.0231 -14.0210 -14.0122 -14.0089 -14.0020 -13.9994 -13.9899 -13.9855
     0.0355   0.1613   0.6913   0.7638   0.8796   0.9897   1.4745   1.5798
     1.9806   2.0468   2.1279   2.2262   2.4792   2.5698   2.6355   2.6742
     2.6991   2.7796   2.9646   3.0966   3.1757   3.2453

          k =-0.2500-0.5000 0.2500 ( 64426 PWs)   bands (ev):

   -31.3885 -31.0399 -30.6819 -30.6373 -30.6361 -30.6223 -30.6042 -30.6021
   -30.5903 -30.5890 -30.5841 -30.5745 -30.5680 -30.5663 -30.5468 -30.5380
   -15.6564 -14.7822 -14.7698 -14.5035 -14.4870 -14.2799 -14.2170 -14.2092
   -14.1861 -14.1698 -14.1631 -14.1547 -14.1438 -14.1349 -14.1298 -14.1187
   -14.1129 -14.1075 -14.1041 -14.0989 -14.0954 -14.0853 -14.0813 -14.0808
   -14.0740 -14.0682 -14.0667 -14.0607 -14.0585 -14.0570 -14.0522 -14.0515
   -14.0493 -14.0471 -14.0457 -14.0426 -14.0372 -14.0339 -14.0325 -14.0307
   -14.0221 -14.0210 -14.0143 -14.0085 -14.0022 -13.9994 -13.9892 -13.9856
     0.0307   0.1635   0.7253   0.7394   0.8513   1.0374   1.4588   1.5606
     2.0008   2.0122   2.1048   2.2508   2.5183   2.5696   2.6082   2.6412
     2.6930   2.8147   2.9938   3.0532   3.1263   3.2403

          k =-0.2500 0.5000-0.2500 ( 64426 PWs)   bands (ev):

   -31.3885 -31.0399 -30.6819 -30.6373 -30.6361 -30.6223 -30.6042 -30.6021
   -30.5903 -30.5890 -30.5841 -30.5745 -30.5680 -30.5663 -30.5468 -30.5380
   -15.6564 -14.7822 -14.7698 -14.5035 -14.4870 -14.2799 -14.2169 -14.2092
   -14.1860 -14.1698 -14.1636 -14.1550 -14.1440 -14.1349 -14.1298 -14.1183
   -14.1129 -14.1069 -14.1029 -14.0994 -14.0949 -14.0852 -14.0822 -14.0808
   -14.0735 -14.0684 -14.0664 -14.0614 -14.0585 -14.0575 -14.0533 -14.0522
   -14.0491 -14.0468 -14.0459 -14.0418 -14.0363 -14.0341 -14.0324 -14.0308
   -14.0226 -14.0208 -14.0142 -14.0083 -14.0022 -13.9994 -13.9893 -13.9856
     0.0313   0.1595   0.6951   0.8292   0.8599   0.9470   1.4584   1.5866
     1.9666   2.1000   2.1134   2.2019   2.5292   2.5616   2.6000   2.6667
     2.6973   2.7598   3.0195   3.0587   3.1216   3.1776

          k =-0.5000 0.2500 0.5000 ( 64524 PWs)   bands (ev):

   -31.3885 -31.0399 -30.6819 -30.6373 -30.6361 -30.6223 -30.6043 -30.6020
   -30.5903 -30.5890 -30.5841 -30.5745 -30.5680 -30.5663 -30.5468 -30.5380
   -15.6564 -14.7822 -14.7698 -14.5031 -14.4871 -14.2795 -14.2169 -14.2113
   -14.1860 -14.1699 -14.1645 -14.1547 -14.1439 -14.1340 -14.1293 -14.1184
   -14.1129 -14.1064 -14.1041 -14.0987 -14.0940 -14.0859 -14.0816 -14.0798
   -14.0741 -14.0695 -14.0661 -14.0621 -14.0594 -14.0570 -14.0538 -14.0512
   -14.0491 -14.0469 -14.0453 -14.0415 -14.0356 -14.0348 -14.0330 -14.0316
   -14.0227 -14.0211 -14.0122 -14.0090 -14.0017 -13.9992 -13.9895 -13.9856
     0.1838   0.3522   0.4475   0.5287   0.9214   1.0832   1.1919   1.2393
     2.1434   2.2772   2.3482   2.4054   2.6757   2.7199   2.7713   2.8015
     2.8299   2.9131   2.9447   2.9479   3.0822   3.1695

          k =-0.5000 0.5000 0.2500 ( 64524 PWs)   bands (ev):

   -31.3885 -31.0399 -30.6819 -30.6373 -30.6361 -30.6223 -30.6042 -30.6021
   -30.5903 -30.5890 -30.5841 -30.5745 -30.5680 -30.5663 -30.5468 -30.5380
   -15.6564 -14.7822 -14.7698 -14.5035 -14.4870 -14.2799 -14.2169 -14.2093
   -14.1860 -14.1696 -14.1635 -14.1553 -14.1437 -14.1344 -14.1293 -14.1185
   -14.1137 -14.1068 -14.1041 -14.0989 -14.0944 -14.0862 -14.0818 -14.0804
   -14.0732 -14.0688 -14.0665 -14.0620 -14.0585 -14.0576 -14.0528 -14.0515
   -14.0493 -14.0469 -14.0459 -14.0423 -14.0364 -14.0341 -14.0327 -14.0307
   -14.0223 -14.0205 -14.0140 -14.0085 -14.0024 -13.9990 -13.9893 -13.9856
     0.2621   0.3306   0.3512   0.5353   1.0449   1.0534   1.1014   1.2681
     2.2247   2.2564   2.2818   2.4231   2.6614   2.6892   2.7359   2.7857
     2.8658   2.8992   2.9388   2.9994   3.1008   3.1782

     the Fermi energy is     1.7230 ev

!    total energy              =   -1807.94552343 Ry

     total all-electron energy =    -19267.764913 Ry
     estimated scf accuracy    <       0.00000074 Ry
     smearing contrib. (-TS)   =      -0.00877499 Ry
     internal energy E=F+TS    =   -1807.93674845 Ry

     The total energy is F=E-TS. E is the sum of the following terms:
     one-electron contribution =    -637.38068959 Ry
     hartree contribution      =     334.99298775 Ry
     xc contribution           =    -178.73579832 Ry
     ewald contribution        =    -440.09267969 Ry
     one-center paw contrib.   =    -886.72056859 Ry

     convergence has been achieved in   9 iterations

     Forces acting on atoms (cartesian axes, Ry/au):

     atom    1 type  1   force =    -0.00818688    0.00503027   -0.00463788
     atom    2 type  1   force =     0.00259547   -0.00099645    0.00716150
     atom    3 type  1   force =     0.01864113   -0.04435612    0.05781062
     atom    4 type  1   force =     0.00737497    0.00898009   -0.00518419
     atom    5 type  1   force =     0.01116162    0.00153272    0.01539398
     atom    6 type  1   force =    -0.00119896   -0.00780730    0.00589761
     atom    7 type  1   force =    -0.01989551    0.03928559   -0.03881686
     atom    8 type  1   force =    -0.00341660    0.00711010    0.00072760
     atom    9 type  1   force =     0.00606462    0.01300904   -0.00131987
     atom   10 type  1   force =    -0.01143269   -0.00242619   -0.00861054
     atom   11 type  1   force =    -0.00279542   -0.00254095    0.00266366
     atom   12 type  1   force =     0.00060617   -0.00961312   -0.00367272
     atom   13 type  1   force =    -0.00575433    0.01075860   -0.00972363
     atom   14 type  1   force =     0.00138121    0.00073098    0.00449914
     atom   15 type  1   force =     0.00529913   -0.00359635   -0.01915030
     atom   16 type  1   force =    -0.00044391   -0.01510091   -0.00303811

     Total force =     0.000000     Total SCF correction =     0.000000


     Computing stress (Cartesian axis) and pressure

          total   stress  (Ry/bohr**3)                   (kbar)     P=        5.53
   0.00001594   0.00000151   0.00001799            2.34        0.22        2.65
   0.00000151   0.00005592  -0.00001122            0.22        8.23       -1.65
   0.00001799  -0.00001122   0.00004094            2.65       -1.65        6.02


     init_run     :    180.55s CPU    182.93s WALL (       1 calls)
     electrons    :   3851.19s CPU   3889.75s WALL (       1 calls)
     forces       :     44.51s CPU     45.02s WALL (       1 calls)
     stress       :    494.25s CPU    497.74s WALL (       1 calls)

     Called by init_run:
     wfcinit      :    174.58s CPU    176.57s WALL (       1 calls)
     potinit      :      2.75s CPU      2.83s WALL (       1 calls)
     hinit0       :      0.48s CPU      0.49s WALL (       1 calls)

     Called by electrons:
     c_bands      :   3311.72s CPU   3343.09s WALL (      10 calls)
     sum_band     :    494.12s CPU    498.39s WALL (      10 calls)
     v_of_rho     :      7.82s CPU      8.12s WALL (      10 calls)
     newd         :     21.85s CPU     24.62s WALL (      10 calls)
     PAW_pot      :     18.53s CPU     18.61s WALL (      10 calls)
     mix_rho      :      1.21s CPU      1.30s WALL (      10 calls)

     Called by c_bands:
     init_us_2    :     38.24s CPU     38.47s WALL (     828 calls)
     cegterg      :   3155.19s CPU   3185.96s WALL (     360 calls)

     Called by *egterg:
     cdiaghg      :     16.47s CPU     16.54s WALL (    2144 calls)
     h_psi        :   2406.54s CPU   2420.63s WALL (    2216 calls)
     s_psi        :    242.07s CPU    242.67s WALL (    2216 calls)
     g_psi        :     13.22s CPU     13.26s WALL (    1820 calls)

     Called by h_psi:
     h_psi:calbec :    218.17s CPU    218.74s WALL (    2216 calls)
     vloc_psi     :   1934.17s CPU   1939.34s WALL (    2216 calls)
     add_vuspsi   :    242.25s CPU    242.86s WALL (    2216 calls)

     General routines
     calbec       :    324.51s CPU    325.34s WALL (    2756 calls)
     fft          :      5.13s CPU      5.14s WALL (     154 calls)
     ffts         :      0.36s CPU      0.36s WALL (      20 calls)
     fftw         :   2055.68s CPU   2060.90s WALL (  196496 calls)
     interpolate  :      0.61s CPU      0.62s WALL (      10 calls)

     Parallel routines

     PWSCF        :      1h16m CPU      1h16m WALL


   This run was terminated on:   4:26: 5   9Feb2024            

=------------------------------------------------------------------------------=
   JOB DONE.
=------------------------------------------------------------------------------=
