
     Program PWSCF v.6.6 starts on 23Mar2024 at  1:26:38 

     This program is part of the open-source Quantum ESPRESSO suite
     for quantum simulation of materials; please cite
         "P. Giannozzi et al., J. Phys.:Condens. Matter 21 395502 (2009);
         "P. Giannozzi et al., J. Phys.:Condens. Matter 29 465901 (2017);
          URL http://www.quantum-espresso.org", 
     in publications or presentations arising from this work. More details at
     http://www.quantum-espresso.org/quote

     Parallel version (MPI & OpenMP), running on       1 processor cores
     Number of MPI processes:                 1
     Threads/MPI process:                     1

     MPI processes distributed on     1 nodes
     Fft bands division:     nmany     =       1
     Waiting for input...
     Reading input from standard input

     Current dimensions of program PWSCF are:
     Max number of different atomic species (ntypx) = 10
     Max number of k-points (npk) =  40000
     Max angular momentum in pseudopotentials (lmaxx) =  3
     file K.pbe-spn-kjpaw_psl.1.0.0.UPF: wavefunction(s)  3S renormalized

     Subspace diagonalization in iterative solution of the eigenvalue problem:
     a serial algorithm will be used


     G-vector sticks info
     --------------------
     sticks:   dense  smooth     PW     G-vecs:    dense   smooth      PW
     Sum       23629   18909   4873              2734313  1956503  255447



     bravais-lattice index     =            0
     lattice parameter (alat)  =      31.4668  a.u.
     unit-cell volume          =   31157.0699 (a.u.)^3
     number of atoms/cell      =           54
     number of atomic types    =            1
     number of electrons       =       486.00
     number of Kohn-Sham states=          292
     kinetic-energy cutoff     =      60.0000  Ry
     charge density cutoff     =     300.0000  Ry
     convergence threshold     =      1.0E-06
     mixing beta               =       0.7000
     number of iterations used =            8  plain     mixing
     Exchange-correlation= SLA PW PBX PBC
                           (   1   4   3   4   0   0   0)

     celldm(1)=  31.466773  celldm(2)=   0.000000  celldm(3)=   0.000000
     celldm(4)=   0.000000  celldm(5)=   0.000000  celldm(6)=   0.000000

     crystal axes: (cart. coord. in units of alat)
               a(1) = (   1.000000   0.000000   0.000000 )  
               a(2) = (   0.000000   1.000000   0.000000 )  
               a(3) = (   0.000000   0.000000   1.000000 )  

     reciprocal axes: (cart. coord. in units 2 pi/alat)
               b(1) = (  1.000000  0.000000  0.000000 )  
               b(2) = (  0.000000  1.000000  0.000000 )  
               b(3) = (  0.000000  0.000000  1.000000 )  


     PseudoPot. # 1 for K  read from file:
     /global/home/hpc5146/K.pbe-spn-kjpaw_psl.1.0.0.UPF
     MD5 check sum: 7d58810084cac21f60fbe77ea2b688fd
     Pseudo is Projector augmented-wave + core cor, Zval =  9.0
     Generated using "atomic" code by A. Dal Corso v.5.1
     Shape of augmentation charge: PSQ
     Using radial grid of 1165 points,  6 beta functions with: 
                l(1) =   0
                l(2) =   0
                l(3) =   1
                l(4) =   1
                l(5) =   2
                l(6) =   2
     Q(r) pseudized with 0 coefficients 


     atomic species   valence    mass     pseudopotential
        K              9.00    39.09830     K ( 1.00)

     No symmetry found



   Cartesian axes

     site n.     atom                  positions (alat units)
         1           K   tau(   1) = (   0.8450297   0.1454821   0.1350095  )
         2           K   tau(   2) = (   0.1558082   0.2746472   0.1242479  )
         3           K   tau(   3) = (   0.4055285   0.2612720   0.1142998  )
         4           K   tau(   4) = (   0.2638841   0.4912770   0.2234883  )
         5           K   tau(   5) = (   0.6475464   0.4419623   0.1373068  )
         6           K   tau(   6) = (   0.9256185   0.4332134   0.1800786  )
         7           K   tau(   7) = (   0.9583872   0.2957161   0.0168762  )
         8           K   tau(   8) = (   0.4568106   0.6547743   0.2146192  )
         9           K   tau(   9) = (   0.9847968   0.7328499   0.0690618  )
        10           K   tau(  10) = (   0.1535467   0.9500231   0.0601005  )
        11           K   tau(  11) = (   0.4264698   0.9110302   0.1703354  )
        12           K   tau(  12) = (   0.6422067   0.7645362   0.1380467  )
        13           K   tau(  13) = (   0.0930417   0.1163487   0.3327350  )
        14           K   tau(  14) = (   0.3364453   0.0532958   0.3748613  )
        15           K   tau(  15) = (   0.6187659   0.0728982   0.2633940  )
        16           K   tau(  16) = (   0.8792516   0.2126990   0.4502747  )
        17           K   tau(  17) = (   0.1029737   0.4151254   0.4225565  )
        18           K   tau(  18) = (   0.5538120   0.3282044   0.3443238  )
        19           K   tau(  19) = (   0.8045989   0.4216448   0.4225100  )
        20           K   tau(  20) = (   0.3453370   0.6293663   0.4899772  )
        21           K   tau(  21) = (   0.5754402   0.5679331   0.4410759  )
        22           K   tau(  22) = (   0.9231360   0.6663375   0.3844088  )
        23           K   tau(  23) = (   0.1974772   0.8349786   0.3668264  )
        24           K   tau(  24) = (   0.5010151   0.8302903   0.4289674  )
        25           K   tau(  25) = (   0.8601156   0.9240781   0.3433293  )
        26           K   tau(  26) = (   0.1490163   0.1387677   0.5641032  )
        27           K   tau(  27) = (   0.6164521   0.1559394   0.5328851  )
        28           K   tau(  28) = (   0.8150508   0.0874740   0.6562688  )
        29           K   tau(  29) = (   0.1361210   0.3560579   0.6447967  )
        30           K   tau(  30) = (   0.3959746   0.3828914   0.5325883  )
        31           K   tau(  31) = (   0.6042470   0.4056889   0.6855737  )
        32           K   tau(  32) = (   0.8761418   0.3600352   0.6775752  )
        33           K   tau(  33) = (   0.0473870   0.5926369   0.7275246  )
        34           K   tau(  34) = (   0.3170761   0.6824273   0.7479533  )
        35           K   tau(  35) = (   0.5238297   0.7099948   0.6709463  )
        36           K   tau(  36) = (   0.7887158   0.6982064   0.6406325  )
        37           K   tau(  37) = (   0.0235079   0.8965384   0.5219356  )
        38           K   tau(  38) = (   0.4401669   0.9726353   0.6111537  )
        39           K   tau(  39) = (   0.7007762   0.8585926   0.5478406  )
        40           K   tau(  40) = (   0.6450326   0.9910884   0.7296360  )
        41           K   tau(  41) = (   0.2492548   0.1611147   0.8339022  )
        42           K   tau(  42) = (   0.4523219   0.1867317   0.7457413  )
        43           K   tau(  43) = (   0.5061942   0.0651909   0.9951197  )
        44           K   tau(  44) = (   0.0541570   0.4632108   0.9103039  )
        45           K   tau(  45) = (   0.2749080   0.4229468   0.8400882  )
        46           K   tau(  46) = (   0.5603493   0.3476623   0.9204734  )
        47           K   tau(  47) = (   0.2099894   0.6676709   0.9354606  )
        48           K   tau(  48) = (   0.4623652   0.5939451   0.9453053  )
        49           K   tau(  49) = (   0.7892882   0.5107552   0.9135051  )
        50           K   tau(  50) = (   0.8575683   0.7465664   0.8265853  )
        51           K   tau(  51) = (   0.1848437   0.9149045   0.7704283  )
        52           K   tau(  52) = (   0.4347269   0.8385036   0.9173443  )
        53           K   tau(  53) = (   0.7459496   0.9179501   0.9637379  )
        54           K   tau(  54) = (   0.9815436   0.9438872   0.8418790  )

     number of k points=    14  Gaussian smearing, width (Ry)=  0.0100
                       cart. coord. in units 2pi/alat
        k(    1) = (   0.0000000   0.0000000   0.0000000), wk =   0.0740741
        k(    2) = (   0.0000000   0.0000000   0.3333333), wk =   0.1481481
        k(    3) = (   0.0000000   0.3333333   0.3333333), wk =   0.1481481
        k(    4) = (   0.3333333   0.3333333   0.3333333), wk =   0.1481481
        k(    5) = (   0.3333333   0.0000000   0.0000000), wk =   0.1481481
        k(    6) = (   0.0000000   0.3333333   0.0000000), wk =   0.1481481
        k(    7) = (   0.0000000  -0.3333333   0.3333333), wk =   0.1481481
        k(    8) = (   0.3333333   0.0000000  -0.3333333), wk =   0.1481481
        k(    9) = (  -0.3333333   0.0000000  -0.3333333), wk =   0.1481481
        k(   10) = (   0.3333333  -0.3333333   0.0000000), wk =   0.1481481
        k(   11) = (  -0.3333333  -0.3333333   0.0000000), wk =   0.1481481
        k(   12) = (  -0.3333333  -0.3333333   0.3333333), wk =   0.1481481
        k(   13) = (  -0.3333333   0.3333333  -0.3333333), wk =   0.1481481
        k(   14) = (   0.3333333  -0.3333333  -0.3333333), wk =   0.1481481

     Dense  grid:  2734313 G-vectors     FFT dimensions: ( 180, 180, 180)

     Smooth grid:  1956503 G-vectors     FFT dimensions: ( 160, 160, 160)

     Estimated max dynamical RAM per process >      35.12 GB

     Check: negative core charge=   -0.000001

     Initial potential from superposition of free atoms

     starting charge  484.98312, renormalised to  486.00000
     Starting wfcs are  432 randomized atomic wfcs
     Checking if some PAW data can be deallocated... 

     total cpu time spent up to now is     2654.9 secs

     Self-consistent Calculation

     iteration #  1     ecut=    60.00 Ry     beta= 0.70
     Davidson diagonalization with overlap
     ethr =  1.00E-02,  avg # of iterations =  3.4

     Threshold (ethr) on eigenvalues was too large:
     Diagonalizing with lowered threshold

     Davidson diagonalization with overlap
     c_bands:  1 eigenvalues not converged
     ethr =  4.12E-05,  avg # of iterations = 15.7

     total cpu time spent up to now is    15554.1 secs

     total energy              =   -6101.93190401 Ry
     estimated scf accuracy    <       0.26550696 Ry

     iteration #  2     ecut=    60.00 Ry     beta= 0.70
     Davidson diagonalization with overlap
     ethr =  5.46E-05,  avg # of iterations = 14.5

     total cpu time spent up to now is    23788.5 secs

     total energy              =   -6101.55735154 Ry
     estimated scf accuracy    <       4.83193167 Ry

     iteration #  3     ecut=    60.00 Ry     beta= 0.70
     Davidson diagonalization with overlap
     ethr =  5.46E-05,  avg # of iterations = 10.7

     total cpu time spent up to now is    30597.5 secs

     total energy              =   -6101.99045876 Ry
     estimated scf accuracy    <       0.49619519 Ry

     iteration #  4     ecut=    60.00 Ry     beta= 0.70
     Davidson diagonalization with overlap
     ethr =  5.46E-05,  avg # of iterations =  5.8

     total cpu time spent up to now is    35491.8 secs

     total energy              =   -6102.04102326 Ry
     estimated scf accuracy    <       0.10405907 Ry

     iteration #  5     ecut=    60.00 Ry     beta= 0.70
     Davidson diagonalization with overlap
     ethr =  2.14E-05,  avg # of iterations =  4.3

     total cpu time spent up to now is    40282.9 secs

     total energy              =   -6102.04948209 Ry
     estimated scf accuracy    <       0.03969277 Ry

     iteration #  6     ecut=    60.00 Ry     beta= 0.70
     Davidson diagonalization with overlap
     c_bands:  1 eigenvalues not converged
     c_bands:  1 eigenvalues not converged
     ethr =  8.17E-06,  avg # of iterations = 12.5

     total cpu time spent up to now is    45897.3 secs

     total energy              =   -6102.05237357 Ry
     estimated scf accuracy    <       0.04708959 Ry

     iteration #  7     ecut=    60.00 Ry     beta= 0.70
     Davidson diagonalization with overlap
     ethr =  8.17E-06,  avg # of iterations =  2.6

     total cpu time spent up to now is    50709.4 secs

     total energy              =   -6102.05630900 Ry
     estimated scf accuracy    <       0.00178043 Ry

     iteration #  8     ecut=    60.00 Ry     beta= 0.70
     Davidson diagonalization with overlap
     c_bands:  1 eigenvalues not converged
     c_bands:  1 eigenvalues not converged
     c_bands:  1 eigenvalues not converged
     ethr =  3.66E-07,  avg # of iterations = 13.6

     total cpu time spent up to now is    56468.8 secs

     total energy              =   -6102.05645172 Ry
     estimated scf accuracy    <       0.00151388 Ry

     iteration #  9     ecut=    60.00 Ry     beta= 0.70
     Davidson diagonalization with overlap
     ethr =  3.11E-07,  avg # of iterations =  4.1

     total cpu time spent up to now is    61367.5 secs

     total energy              =   -6102.05655622 Ry
     estimated scf accuracy    <       0.00178444 Ry

     iteration # 10     ecut=    60.00 Ry     beta= 0.70
     Davidson diagonalization with overlap
     ethr =  3.11E-07,  avg # of iterations =  2.0

     total cpu time spent up to now is    66142.0 secs

     total energy              =   -6102.05671087 Ry
     estimated scf accuracy    <       0.00021131 Ry

     iteration # 11     ecut=    60.00 Ry     beta= 0.70
     Davidson diagonalization with overlap
     ethr =  4.35E-08,  avg # of iterations =  2.0

     total cpu time spent up to now is    70973.9 secs

     total energy              =   -6102.05672852 Ry
     estimated scf accuracy    <       0.00003324 Ry

     iteration # 12     ecut=    60.00 Ry     beta= 0.70
     Davidson diagonalization with overlap
     ethr =  6.84E-09,  avg # of iterations =  4.1

     total cpu time spent up to now is    76048.6 secs

     total energy              =   -6102.05672922 Ry
     estimated scf accuracy    <       0.00007835 Ry

     iteration # 13     ecut=    60.00 Ry     beta= 0.70
     Davidson diagonalization with overlap
     ethr =  6.84E-09,  avg # of iterations =  2.9

     total cpu time spent up to now is    80890.3 secs

     total energy              =   -6102.05673524 Ry
     estimated scf accuracy    <       0.00001668 Ry

     iteration # 14     ecut=    60.00 Ry     beta= 0.70
     Davidson diagonalization with overlap
     ethr =  3.43E-09,  avg # of iterations =  2.4

     total cpu time spent up to now is    85693.2 secs

     total energy              =   -6102.05673654 Ry
     estimated scf accuracy    <       0.00000775 Ry

     iteration # 15     ecut=    60.00 Ry     beta= 0.70
     Davidson diagonalization with overlap
     ethr =  1.60E-09,  avg # of iterations =  2.0

     total cpu time spent up to now is    90500.6 secs

     total energy              =   -6102.05673729 Ry
     estimated scf accuracy    <       0.00000241 Ry

     iteration # 16     ecut=    60.00 Ry     beta= 0.70
     Davidson diagonalization with overlap
     ethr =  4.96E-10,  avg # of iterations =  2.0

     total cpu time spent up to now is    95273.3 secs

     End of self-consistent calculation

          k = 0.0000 0.0000 0.0000 (244113 PWs)   bands (ev):

   -31.3817 -31.3647 -31.2376 -31.2366 -31.2341 -31.2068 -31.1784 -31.1646
   -31.1595 -31.1536 -31.1500 -31.1487 -31.1386 -31.1307 -31.1240 -31.1231
   -31.1173 -31.1167 -31.1084 -31.1056 -31.1014 -31.0940 -31.0927 -31.0903
   -31.0855 -31.0848 -31.0782 -31.0659 -31.0642 -31.0620 -31.0598 -31.0591
   -31.0574 -31.0540 -31.0511 -31.0509 -31.0485 -31.0454 -31.0388 -31.0381
   -31.0336 -31.0239 -31.0231 -31.0221 -31.0021 -31.0000 -30.9959 -30.9806
   -30.9692 -30.9555 -30.9514 -30.9508 -30.9460 -30.8969 -15.0177 -14.9569
   -14.9194 -14.9120 -14.8700 -14.8540 -14.8157 -14.7918 -14.7502 -14.7285
   -14.7238 -14.7192 -14.7088 -14.7085 -14.7018 -14.6996 -14.6982 -14.6782
   -14.6750 -14.6740 -14.6700 -14.6665 -14.6639 -14.6565 -14.6562 -14.6545
   -14.6451 -14.6428 -14.6423 -14.6376 -14.6370 -14.6353 -14.6346 -14.6335
   -14.6316 -14.6292 -14.6290 -14.6280 -14.6269 -14.6235 -14.6232 -14.6229
   -14.6219 -14.6214 -14.6196 -14.6178 -14.6160 -14.6133 -14.6122 -14.6103
   -14.5980 -14.5965 -14.5939 -14.5919 -14.5904 -14.5892 -14.5883 -14.5866
   -14.5858 -14.5858 -14.5847 -14.5839 -14.5810 -14.5806 -14.5787 -14.5785
   -14.5767 -14.5759 -14.5742 -14.5735 -14.5707 -14.5699 -14.5690 -14.5668
   -14.5651 -14.5635 -14.5631 -14.5588 -14.5584 -14.5578 -14.5571 -14.5560
   -14.5540 -14.5529 -14.5524 -14.5514 -14.5493 -14.5449 -14.5435 -14.5424
   -14.5415 -14.5408 -14.5401 -14.5362 -14.5357 -14.5344 -14.5324 -14.5318
   -14.5310 -14.5304 -14.5300 -14.5273 -14.5265 -14.5251 -14.5243 -14.5234
   -14.5232 -14.5228 -14.5219 -14.5209 -14.5185 -14.5167 -14.5159 -14.5136
   -14.5112 -14.5088 -14.5083 -14.5069 -14.5058 -14.5041 -14.5037 -14.5026
   -14.5004 -14.4988 -14.4983 -14.4959 -14.4952 -14.4949 -14.4942 -14.4930
   -14.4922 -14.4899 -14.4877 -14.4836 -14.4781 -14.4780 -14.4749 -14.4748
   -14.4732 -14.4728 -14.4708 -14.4683 -14.4584 -14.4565 -14.4455 -14.4436
   -14.4408 -14.4352 -14.4345 -14.4337 -14.4311 -14.4302 -14.4292 -14.4266
   -14.4231 -14.4187 -14.4168 -14.4117 -14.4076 -14.3914 -14.3799 -14.3669
    -0.7537  -0.2787  -0.2127  -0.1703  -0.1067  -0.0830  -0.0555   0.2463
     0.3250   0.3419   0.3700   0.4049   0.4443   0.4899   0.5204   0.5378
     0.5659   0.5854   0.6809   0.8562   0.9570   0.9679   1.0077   1.0381
     1.0573   1.1489   1.1715   1.4602   1.4783   1.4969   1.5495   1.5728
     1.6055   1.8524   1.8631   1.8688   1.8888   1.9160   1.9211   1.9278
     1.9547   1.9717   1.9812   1.9876   2.0066   2.0187   2.0210   2.0472
     2.0548   2.0631   2.0750   2.0897   2.0973   2.1092   2.1199   2.1370
     2.2039   2.2972   2.3292   2.3502   2.3622   2.3704   2.3841   2.3982
     2.4138   2.4289   2.4340   2.4592   2.4688   2.4961   2.5168   2.5192
     2.5400   2.5595   2.5772   2.6009

          k = 0.0000 0.0000 0.3333 (244518 PWs)   bands (ev):

   -31.3817 -31.3647 -31.2376 -31.2366 -31.2341 -31.2068 -31.1784 -31.1646
   -31.1595 -31.1536 -31.1500 -31.1487 -31.1386 -31.1307 -31.1240 -31.1231
   -31.1173 -31.1167 -31.1084 -31.1056 -31.1015 -31.0940 -31.0927 -31.0903
   -31.0855 -31.0848 -31.0782 -31.0659 -31.0642 -31.0620 -31.0598 -31.0591
   -31.0574 -31.0540 -31.0511 -31.0509 -31.0485 -31.0454 -31.0388 -31.0381
   -31.0336 -31.0239 -31.0231 -31.0221 -31.0021 -31.0000 -30.9959 -30.9807
   -30.9692 -30.9555 -30.9514 -30.9508 -30.9460 -30.8969 -15.0177 -14.9569
   -14.9194 -14.9120 -14.8700 -14.8540 -14.8157 -14.7918 -14.7502 -14.7285
   -14.7238 -14.7192 -14.7088 -14.7085 -14.7018 -14.6996 -14.6982 -14.6782
   -14.6750 -14.6740 -14.6699 -14.6665 -14.6639 -14.6566 -14.6562 -14.6546
   -14.6451 -14.6428 -14.6424 -14.6376 -14.6370 -14.6352 -14.6345 -14.6335
   -14.6316 -14.6293 -14.6288 -14.6278 -14.6270 -14.6235 -14.6233 -14.6231
   -14.6222 -14.6212 -14.6196 -14.6178 -14.6160 -14.6133 -14.6122 -14.6102
   -14.5980 -14.5966 -14.5939 -14.5918 -14.5903 -14.5893 -14.5881 -14.5871
   -14.5864 -14.5858 -14.5845 -14.5839 -14.5810 -14.5803 -14.5786 -14.5783
   -14.5766 -14.5759 -14.5745 -14.5733 -14.5706 -14.5702 -14.5691 -14.5668
   -14.5650 -14.5636 -14.5630 -14.5588 -14.5583 -14.5576 -14.5571 -14.5566
   -14.5540 -14.5534 -14.5524 -14.5508 -14.5491 -14.5446 -14.5435 -14.5426
   -14.5420 -14.5408 -14.5393 -14.5363 -14.5354 -14.5348 -14.5326 -14.5320
   -14.5308 -14.5304 -14.5294 -14.5278 -14.5266 -14.5249 -14.5244 -14.5233
   -14.5232 -14.5227 -14.5219 -14.5209 -14.5187 -14.5167 -14.5159 -14.5136
   -14.5113 -14.5088 -14.5082 -14.5070 -14.5056 -14.5043 -14.5037 -14.5024
   -14.5007 -14.4989 -14.4982 -14.4960 -14.4951 -14.4950 -14.4940 -14.4930
   -14.4920 -14.4899 -14.4877 -14.4836 -14.4783 -14.4781 -14.4749 -14.4746
   -14.4732 -14.4729 -14.4708 -14.4683 -14.4585 -14.4565 -14.4455 -14.4436
   -14.4411 -14.4351 -14.4345 -14.4337 -14.4310 -14.4303 -14.4290 -14.4267
   -14.4231 -14.4189 -14.4164 -14.4118 -14.4078 -14.3914 -14.3799 -14.3669
    -0.6957  -0.4698  -0.1926  -0.1226  -0.0778  -0.0375   0.0344   0.1459
     0.1699   0.2279   0.3082   0.3886   0.5171   0.5362   0.5709   0.6227
     0.6786   0.7198   0.8130   0.8354   0.8899   0.9492   0.9827   1.0109
     1.2986   1.3265   1.3674   1.3916   1.4226   1.4560   1.4633   1.5101
     1.5544   1.5850   1.6166   1.6380   1.7008   1.7429   1.7564   1.8092
     1.8391   1.8737   1.9191   1.9622   1.9846   2.0046   2.0322   2.0398
     2.0642   2.0819   2.0956   2.1366   2.1514   2.1658   2.1978   2.2128
     2.2378   2.2584   2.2890   2.3084   2.3347   2.3633   2.3922   2.4027
     2.4324   2.5260   2.6029   2.6319   2.6481   2.6776   2.6872   2.7060
     2.7295   2.7439   2.7606   2.7766

          k = 0.0000 0.3333 0.3333 (244527 PWs)   bands (ev):

   -31.3817 -31.3647 -31.2376 -31.2366 -31.2341 -31.2068 -31.1784 -31.1646
   -31.1595 -31.1536 -31.1500 -31.1487 -31.1386 -31.1307 -31.1240 -31.1231
   -31.1173 -31.1167 -31.1084 -31.1056 -31.1015 -31.0940 -31.0927 -31.0903
   -31.0855 -31.0848 -31.0782 -31.0659 -31.0642 -31.0620 -31.0598 -31.0591
   -31.0574 -31.0540 -31.0511 -31.0509 -31.0485 -31.0454 -31.0388 -31.0381
   -31.0336 -31.0239 -31.0231 -31.0221 -31.0021 -31.0000 -30.9959 -30.9807
   -30.9692 -30.9555 -30.9514 -30.9508 -30.9460 -30.8969 -15.0177 -14.9569
   -14.9194 -14.9120 -14.8700 -14.8540 -14.8157 -14.7918 -14.7502 -14.7285
   -14.7238 -14.7193 -14.7088 -14.7085 -14.7018 -14.6996 -14.6982 -14.6782
   -14.6749 -14.6740 -14.6701 -14.6665 -14.6639 -14.6566 -14.6562 -14.6545
   -14.6451 -14.6428 -14.6424 -14.6376 -14.6370 -14.6353 -14.6345 -14.6335
   -14.6316 -14.6292 -14.6288 -14.6278 -14.6272 -14.6235 -14.6233 -14.6230
   -14.6219 -14.6213 -14.6196 -14.6177 -14.6160 -14.6132 -14.6122 -14.6102
   -14.5980 -14.5973 -14.5941 -14.5918 -14.5903 -14.5895 -14.5880 -14.5871
   -14.5863 -14.5860 -14.5843 -14.5836 -14.5811 -14.5802 -14.5787 -14.5779
   -14.5763 -14.5758 -14.5745 -14.5734 -14.5707 -14.5701 -14.5688 -14.5669
   -14.5650 -14.5636 -14.5633 -14.5588 -14.5583 -14.5577 -14.5572 -14.5566
   -14.5540 -14.5535 -14.5524 -14.5509 -14.5491 -14.5446 -14.5435 -14.5425
   -14.5420 -14.5410 -14.5394 -14.5363 -14.5355 -14.5347 -14.5326 -14.5320
   -14.5310 -14.5303 -14.5290 -14.5282 -14.5265 -14.5251 -14.5242 -14.5234
   -14.5231 -14.5227 -14.5220 -14.5209 -14.5187 -14.5167 -14.5159 -14.5136
   -14.5112 -14.5088 -14.5081 -14.5071 -14.5057 -14.5043 -14.5037 -14.5025
   -14.5006 -14.4990 -14.4982 -14.4959 -14.4952 -14.4949 -14.4940 -14.4930
   -14.4919 -14.4898 -14.4876 -14.4836 -14.4783 -14.4780 -14.4749 -14.4745
   -14.4732 -14.4729 -14.4708 -14.4683 -14.4585 -14.4565 -14.4455 -14.4436
   -14.4411 -14.4351 -14.4345 -14.4337 -14.4310 -14.4303 -14.4290 -14.4267
   -14.4231 -14.4189 -14.4164 -14.4118 -14.4078 -14.3914 -14.3799 -14.3669
    -0.6332  -0.4364  -0.3953  -0.2233  -0.0444  -0.0041   0.1172   0.1322
     0.1957   0.2630   0.3301   0.3721   0.4340   0.4766   0.5904   0.6125
     0.8744   0.8817   0.9015   0.9389   0.9626   1.0295   1.0677   1.1044
     1.1239   1.1662   1.1842   1.2434   1.3352   1.4304   1.4462   1.4772
     1.5141   1.5764   1.6094   1.6318   1.6579   1.6781   1.7275   1.7555
     1.7809   1.8063   1.8173   1.8328   1.8452   1.8802   1.9181   1.9858
     1.9970   2.1677   2.1982   2.2176   2.2552   2.2648   2.2818   2.3017
     2.3661   2.3744   2.3977   2.4174   2.4282   2.4493   2.4900   2.5222
     2.5378   2.5848   2.5921   2.6289   2.6625   2.6766   2.6986   2.7271
     2.7372   2.7605   2.7862   2.8180

          k = 0.3333 0.3333 0.3333 (244557 PWs)   bands (ev):

   -31.3817 -31.3647 -31.2376 -31.2366 -31.2341 -31.2068 -31.1784 -31.1646
   -31.1595 -31.1536 -31.1500 -31.1487 -31.1386 -31.1307 -31.1240 -31.1231
   -31.1173 -31.1167 -31.1084 -31.1056 -31.1015 -31.0940 -31.0927 -31.0903
   -31.0855 -31.0848 -31.0782 -31.0659 -31.0642 -31.0620 -31.0598 -31.0591
   -31.0574 -31.0540 -31.0511 -31.0509 -31.0485 -31.0454 -31.0388 -31.0381
   -31.0336 -31.0239 -31.0231 -31.0221 -31.0021 -31.0000 -30.9959 -30.9807
   -30.9692 -30.9555 -30.9514 -30.9508 -30.9460 -30.8969 -15.0177 -14.9569
   -14.9194 -14.9120 -14.8700 -14.8540 -14.8157 -14.7918 -14.7502 -14.7285
   -14.7238 -14.7193 -14.7088 -14.7085 -14.7018 -14.6996 -14.6982 -14.6782
   -14.6749 -14.6739 -14.6701 -14.6665 -14.6639 -14.6566 -14.6562 -14.6545
   -14.6451 -14.6428 -14.6425 -14.6376 -14.6370 -14.6354 -14.6344 -14.6335
   -14.6316 -14.6292 -14.6289 -14.6278 -14.6268 -14.6234 -14.6233 -14.6231
   -14.6221 -14.6215 -14.6197 -14.6175 -14.6160 -14.6132 -14.6122 -14.6103
   -14.5983 -14.5972 -14.5941 -14.5918 -14.5901 -14.5894 -14.5882 -14.5869
   -14.5866 -14.5857 -14.5841 -14.5834 -14.5813 -14.5802 -14.5788 -14.5778
   -14.5770 -14.5757 -14.5749 -14.5725 -14.5706 -14.5697 -14.5690 -14.5670
   -14.5648 -14.5644 -14.5628 -14.5589 -14.5582 -14.5574 -14.5571 -14.5563
   -14.5544 -14.5536 -14.5529 -14.5507 -14.5492 -14.5446 -14.5434 -14.5426
   -14.5421 -14.5409 -14.5395 -14.5364 -14.5357 -14.5348 -14.5328 -14.5324
   -14.5310 -14.5303 -14.5292 -14.5276 -14.5265 -14.5248 -14.5242 -14.5234
   -14.5233 -14.5224 -14.5219 -14.5204 -14.5187 -14.5166 -14.5157 -14.5143
   -14.5105 -14.5088 -14.5079 -14.5071 -14.5056 -14.5046 -14.5038 -14.5028
   -14.5006 -14.4990 -14.4981 -14.4960 -14.4952 -14.4949 -14.4941 -14.4930
   -14.4919 -14.4898 -14.4877 -14.4836 -14.4783 -14.4781 -14.4748 -14.4746
   -14.4731 -14.4729 -14.4708 -14.4683 -14.4584 -14.4565 -14.4454 -14.4437
   -14.4411 -14.4351 -14.4346 -14.4337 -14.4310 -14.4303 -14.4290 -14.4267
   -14.4231 -14.4189 -14.4164 -14.4118 -14.4078 -14.3914 -14.3799 -14.3669
    -0.5732  -0.4169  -0.3441  -0.2968  -0.1921  -0.1337  -0.0753   0.0923
     0.3590   0.4210   0.4667   0.5133   0.5970   0.6326   0.6512   0.6891
     0.7407   0.7848   0.8384   0.8657   0.9272   0.9929   1.0625   1.1096
     1.1564   1.1767   1.2178   1.2535   1.2854   1.3043   1.3451   1.3819
     1.4171   1.4304   1.4593   1.5331   1.5811   1.5975   1.7811   1.7976
     1.8584   1.8655   1.8890   1.9177   1.9807   1.9934   2.0129   2.0339
     2.0496   2.0729   2.1499   2.2240   2.2521   2.2747   2.2966   2.3312
     2.3505   2.3672   2.4050   2.4235   2.4521   2.4587   2.4780   2.4906
     2.5092   2.5412   2.5676   2.5878   2.6139   2.6321   2.6442   2.6873
     2.8099   2.8384   2.8473   2.8842

          k = 0.3333 0.0000 0.0000 (244518 PWs)   bands (ev):

   -31.3817 -31.3647 -31.2376 -31.2366 -31.2341 -31.2068 -31.1784 -31.1646
   -31.1595 -31.1536 -31.1500 -31.1487 -31.1386 -31.1307 -31.1240 -31.1231
   -31.1173 -31.1167 -31.1084 -31.1056 -31.1015 -31.0940 -31.0927 -31.0903
   -31.0855 -31.0848 -31.0782 -31.0659 -31.0642 -31.0620 -31.0598 -31.0591
   -31.0574 -31.0540 -31.0511 -31.0509 -31.0485 -31.0454 -31.0388 -31.0381
   -31.0336 -31.0239 -31.0231 -31.0221 -31.0021 -31.0000 -30.9959 -30.9807
   -30.9692 -30.9555 -30.9514 -30.9508 -30.9460 -30.8969 -15.0177 -14.9569
   -14.9194 -14.9120 -14.8700 -14.8540 -14.8157 -14.7918 -14.7502 -14.7285
   -14.7238 -14.7193 -14.7088 -14.7085 -14.7018 -14.6996 -14.6982 -14.6782
   -14.6750 -14.6740 -14.6700 -14.6665 -14.6639 -14.6565 -14.6562 -14.6545
   -14.6451 -14.6428 -14.6424 -14.6376 -14.6370 -14.6352 -14.6347 -14.6335
   -14.6316 -14.6293 -14.6291 -14.6279 -14.6264 -14.6235 -14.6233 -14.6230
   -14.6221 -14.6216 -14.6196 -14.6177 -14.6159 -14.6133 -14.6122 -14.6104
   -14.5982 -14.5965 -14.5938 -14.5920 -14.5902 -14.5891 -14.5882 -14.5866
   -14.5862 -14.5856 -14.5843 -14.5835 -14.5813 -14.5805 -14.5788 -14.5782
   -14.5770 -14.5760 -14.5749 -14.5728 -14.5704 -14.5699 -14.5692 -14.5670
   -14.5647 -14.5644 -14.5628 -14.5589 -14.5580 -14.5574 -14.5570 -14.5560
   -14.5539 -14.5532 -14.5527 -14.5515 -14.5495 -14.5449 -14.5435 -14.5424
   -14.5415 -14.5410 -14.5402 -14.5364 -14.5357 -14.5345 -14.5327 -14.5321
   -14.5312 -14.5304 -14.5295 -14.5274 -14.5263 -14.5249 -14.5244 -14.5233
   -14.5232 -14.5225 -14.5218 -14.5208 -14.5187 -14.5165 -14.5158 -14.5138
   -14.5105 -14.5089 -14.5080 -14.5072 -14.5055 -14.5044 -14.5038 -14.5028
   -14.5003 -14.4990 -14.4982 -14.4960 -14.4951 -14.4949 -14.4942 -14.4930
   -14.4922 -14.4899 -14.4877 -14.4836 -14.4781 -14.4780 -14.4750 -14.4747
   -14.4732 -14.4729 -14.4708 -14.4683 -14.4584 -14.4564 -14.4454 -14.4437
   -14.4408 -14.4352 -14.4345 -14.4337 -14.4311 -14.4303 -14.4292 -14.4266
   -14.4231 -14.4187 -14.4168 -14.4117 -14.4076 -14.3914 -14.3799 -14.3669
    -0.6916  -0.4839  -0.1594  -0.1357  -0.0644  -0.0496   0.0599   0.0674
     0.1645   0.2625   0.3191   0.4220   0.5066   0.5400   0.5568   0.6166
     0.6867   0.7683   0.7913   0.8371   0.8575   0.9219   0.9543   1.0262
     1.3063   1.3418   1.3519   1.3841   1.4269   1.4677   1.4804   1.4998
     1.5568   1.5913   1.6046   1.6505   1.7061   1.7353   1.7604   1.7936
     1.8504   1.8931   1.9406   1.9727   1.9855   2.0055   2.0231   2.0403
     2.0622   2.0863   2.1081   2.1218   2.1472   2.1566   2.1880   2.2076
     2.2197   2.2540   2.2733   2.3031   2.3345   2.3663   2.3804   2.4230
     2.4404   2.5173   2.5746   2.6213   2.6322   2.6622   2.6853   2.7112
     2.7362   2.7647   2.7810   2.8008

          k = 0.0000 0.3333 0.0000 (244518 PWs)   bands (ev):

   -31.3817 -31.3647 -31.2376 -31.2366 -31.2341 -31.2068 -31.1784 -31.1646
   -31.1595 -31.1536 -31.1500 -31.1487 -31.1386 -31.1307 -31.1240 -31.1231
   -31.1173 -31.1167 -31.1084 -31.1056 -31.1015 -31.0940 -31.0927 -31.0903
   -31.0855 -31.0848 -31.0782 -31.0659 -31.0642 -31.0620 -31.0598 -31.0591
   -31.0574 -31.0540 -31.0511 -31.0509 -31.0485 -31.0454 -31.0388 -31.0381
   -31.0336 -31.0239 -31.0231 -31.0221 -31.0021 -31.0000 -30.9959 -30.9807
   -30.9692 -30.9555 -30.9514 -30.9508 -30.9460 -30.8969 -15.0177 -14.9569
   -14.9194 -14.9120 -14.8700 -14.8540 -14.8157 -14.7918 -14.7502 -14.7285
   -14.7238 -14.7193 -14.7088 -14.7085 -14.7018 -14.6996 -14.6982 -14.6782
   -14.6749 -14.6739 -14.6701 -14.6665 -14.6639 -14.6566 -14.6562 -14.6545
   -14.6451 -14.6428 -14.6424 -14.6376 -14.6370 -14.6354 -14.6345 -14.6335
   -14.6317 -14.6292 -14.6289 -14.6279 -14.6270 -14.6235 -14.6233 -14.6229
   -14.6218 -14.6214 -14.6196 -14.6177 -14.6160 -14.6133 -14.6122 -14.6104
   -14.5981 -14.5973 -14.5939 -14.5919 -14.5905 -14.5893 -14.5884 -14.5867
   -14.5860 -14.5856 -14.5845 -14.5835 -14.5811 -14.5806 -14.5787 -14.5783
   -14.5763 -14.5759 -14.5742 -14.5735 -14.5706 -14.5700 -14.5687 -14.5668
   -14.5652 -14.5635 -14.5634 -14.5588 -14.5584 -14.5578 -14.5572 -14.5561
   -14.5539 -14.5530 -14.5524 -14.5514 -14.5493 -14.5448 -14.5435 -14.5425
   -14.5418 -14.5411 -14.5396 -14.5362 -14.5354 -14.5348 -14.5324 -14.5319
   -14.5311 -14.5302 -14.5293 -14.5280 -14.5265 -14.5252 -14.5241 -14.5234
   -14.5232 -14.5228 -14.5219 -14.5209 -14.5185 -14.5167 -14.5158 -14.5136
   -14.5112 -14.5089 -14.5083 -14.5069 -14.5058 -14.5041 -14.5036 -14.5027
   -14.5003 -14.4990 -14.4983 -14.4959 -14.4951 -14.4949 -14.4943 -14.4930
   -14.4921 -14.4898 -14.4876 -14.4836 -14.4781 -14.4780 -14.4750 -14.4747
   -14.4732 -14.4728 -14.4708 -14.4683 -14.4584 -14.4564 -14.4455 -14.4436
   -14.4408 -14.4352 -14.4345 -14.4337 -14.4311 -14.4303 -14.4292 -14.4266
   -14.4231 -14.4187 -14.4168 -14.4118 -14.4076 -14.3914 -14.3799 -14.3669
    -0.6882  -0.4926  -0.1739  -0.1220  -0.0760  -0.0206   0.0598   0.1011
     0.1447   0.2273   0.3008   0.4261   0.4937   0.5482   0.5990   0.6288
     0.7011   0.7473   0.7877   0.8519   0.8669   0.8859   0.9576   1.0025
     1.3142   1.3391   1.3640   1.3820   1.4272   1.4388   1.4756   1.5275
     1.5576   1.5945   1.6108   1.6454   1.6959   1.7205   1.7526   1.7729
     1.8684   1.9180   1.9440   1.9770   2.0046   2.0098   2.0273   2.0533
     2.0713   2.0984   2.1135   2.1248   2.1526   2.1802   2.1961   2.2124
     2.2316   2.2565   2.2756   2.3103   2.3181   2.3334   2.3563   2.3867
     2.4066   2.5355   2.5803   2.6085   2.6404   2.6665   2.6824   2.7184
     2.7323   2.7510   2.7652   2.7881

          k = 0.0000-0.3333 0.3333 (244527 PWs)   bands (ev):

   -31.3817 -31.3647 -31.2376 -31.2366 -31.2341 -31.2068 -31.1784 -31.1646
   -31.1595 -31.1536 -31.1500 -31.1487 -31.1386 -31.1307 -31.1240 -31.1231
   -31.1173 -31.1167 -31.1084 -31.1056 -31.1015 -31.0940 -31.0927 -31.0903
   -31.0855 -31.0848 -31.0782 -31.0659 -31.0642 -31.0620 -31.0598 -31.0591
   -31.0574 -31.0540 -31.0511 -31.0509 -31.0485 -31.0454 -31.0388 -31.0381
   -31.0336 -31.0239 -31.0231 -31.0221 -31.0021 -31.0000 -30.9959 -30.9807
   -30.9692 -30.9555 -30.9514 -30.9508 -30.9460 -30.8969 -15.0177 -14.9569
   -14.9194 -14.9120 -14.8700 -14.8540 -14.8157 -14.7918 -14.7502 -14.7285
   -14.7238 -14.7193 -14.7088 -14.7085 -14.7018 -14.6996 -14.6982 -14.6782
   -14.6749 -14.6739 -14.6701 -14.6665 -14.6639 -14.6566 -14.6562 -14.6545
   -14.6451 -14.6428 -14.6424 -14.6376 -14.6370 -14.6353 -14.6345 -14.6335
   -14.6316 -14.6292 -14.6287 -14.6278 -14.6272 -14.6235 -14.6232 -14.6231
   -14.6220 -14.6212 -14.6196 -14.6177 -14.6160 -14.6132 -14.6122 -14.6103
   -14.5980 -14.5973 -14.5940 -14.5918 -14.5903 -14.5895 -14.5881 -14.5872
   -14.5863 -14.5860 -14.5843 -14.5835 -14.5810 -14.5803 -14.5787 -14.5779
   -14.5762 -14.5758 -14.5745 -14.5734 -14.5705 -14.5702 -14.5688 -14.5669
   -14.5650 -14.5636 -14.5633 -14.5588 -14.5583 -14.5576 -14.5572 -14.5566
   -14.5540 -14.5535 -14.5524 -14.5509 -14.5491 -14.5448 -14.5436 -14.5423
   -14.5417 -14.5407 -14.5402 -14.5363 -14.5356 -14.5344 -14.5325 -14.5319
   -14.5308 -14.5306 -14.5297 -14.5276 -14.5265 -14.5252 -14.5241 -14.5233
   -14.5231 -14.5227 -14.5219 -14.5209 -14.5187 -14.5167 -14.5159 -14.5136
   -14.5112 -14.5088 -14.5082 -14.5070 -14.5056 -14.5042 -14.5037 -14.5025
   -14.5007 -14.4990 -14.4981 -14.4959 -14.4953 -14.4949 -14.4940 -14.4930
   -14.4919 -14.4898 -14.4876 -14.4836 -14.4783 -14.4781 -14.4748 -14.4746
   -14.4732 -14.4729 -14.4708 -14.4683 -14.4585 -14.4565 -14.4455 -14.4436
   -14.4410 -14.4351 -14.4345 -14.4337 -14.4310 -14.4303 -14.4290 -14.4267
   -14.4231 -14.4189 -14.4164 -14.4118 -14.4078 -14.3914 -14.3799 -14.3669
    -0.6300  -0.4644  -0.3666  -0.2153  -0.0637  -0.0016   0.0912   0.1688
     0.1876   0.2891   0.3094   0.3617   0.4461   0.4755   0.5687   0.6442
     0.8131   0.8695   0.9274   0.9416   0.9983   1.0381   1.0460   1.1081
     1.1444   1.1761   1.1890   1.2456   1.3254   1.4138   1.4573   1.4771
     1.5092   1.5381   1.6086   1.6313   1.6625   1.6833   1.7419   1.7606
     1.7660   1.7831   1.8190   1.8326   1.8736   1.8841   1.9104   1.9915
     1.9984   2.1560   2.1868   2.2228   2.2399   2.2750   2.3055   2.3355
     2.3465   2.3726   2.3837   2.4158   2.4290   2.4699   2.5220   2.5297
     2.5479   2.5744   2.6003   2.6171   2.6415   2.6732   2.6889   2.7120
     2.7361   2.7470   2.7741   2.8036

          k = 0.3333 0.0000-0.3333 (244527 PWs)   bands (ev):

   -31.3817 -31.3647 -31.2376 -31.2366 -31.2341 -31.2068 -31.1784 -31.1646
   -31.1595 -31.1536 -31.1500 -31.1487 -31.1386 -31.1307 -31.1240 -31.1231
   -31.1173 -31.1167 -31.1084 -31.1056 -31.1015 -31.0940 -31.0927 -31.0903
   -31.0855 -31.0848 -31.0782 -31.0659 -31.0642 -31.0620 -31.0598 -31.0591
   -31.0574 -31.0540 -31.0511 -31.0509 -31.0485 -31.0454 -31.0388 -31.0381
   -31.0336 -31.0239 -31.0231 -31.0221 -31.0021 -31.0000 -30.9959 -30.9807
   -30.9692 -30.9555 -30.9514 -30.9508 -30.9460 -30.8969 -15.0177 -14.9569
   -14.9194 -14.9120 -14.8700 -14.8540 -14.8157 -14.7918 -14.7502 -14.7285
   -14.7238 -14.7193 -14.7088 -14.7085 -14.7018 -14.6996 -14.6982 -14.6782
   -14.6750 -14.6740 -14.6699 -14.6665 -14.6639 -14.6566 -14.6562 -14.6545
   -14.6451 -14.6428 -14.6424 -14.6376 -14.6370 -14.6352 -14.6345 -14.6335
   -14.6316 -14.6293 -14.6289 -14.6278 -14.6266 -14.6235 -14.6233 -14.6231
   -14.6223 -14.6214 -14.6197 -14.6176 -14.6160 -14.6133 -14.6122 -14.6102
   -14.5982 -14.5966 -14.5938 -14.5919 -14.5901 -14.5893 -14.5880 -14.5870
   -14.5866 -14.5857 -14.5842 -14.5836 -14.5812 -14.5804 -14.5787 -14.5780
   -14.5772 -14.5758 -14.5750 -14.5726 -14.5704 -14.5700 -14.5692 -14.5670
   -14.5646 -14.5643 -14.5628 -14.5588 -14.5580 -14.5574 -14.5569 -14.5563
   -14.5543 -14.5537 -14.5529 -14.5508 -14.5492 -14.5445 -14.5435 -14.5426
   -14.5421 -14.5408 -14.5395 -14.5363 -14.5355 -14.5349 -14.5330 -14.5325
   -14.5312 -14.5301 -14.5293 -14.5274 -14.5264 -14.5248 -14.5246 -14.5233
   -14.5232 -14.5224 -14.5218 -14.5206 -14.5189 -14.5165 -14.5159 -14.5139
   -14.5106 -14.5089 -14.5079 -14.5072 -14.5053 -14.5046 -14.5038 -14.5028
   -14.5008 -14.4988 -14.4982 -14.4960 -14.4952 -14.4950 -14.4940 -14.4930
   -14.4920 -14.4899 -14.4877 -14.4836 -14.4783 -14.4781 -14.4748 -14.4746
   -14.4732 -14.4729 -14.4708 -14.4683 -14.4584 -14.4565 -14.4454 -14.4437
   -14.4411 -14.4351 -14.4345 -14.4337 -14.4310 -14.4303 -14.4290 -14.4267
   -14.4231 -14.4189 -14.4164 -14.4118 -14.4078 -14.3914 -14.3799 -14.3669
    -0.6342  -0.4496  -0.3785  -0.2087  -0.0623  -0.0119   0.1171   0.1462
     0.2001   0.2500   0.3166   0.3749   0.4270   0.4676   0.6012   0.6487
     0.8393   0.8768   0.9073   0.9452   0.9785   1.0272   1.0646   1.1121
     1.1364   1.1742   1.2037   1.2280   1.3501   1.4124   1.4324   1.4736
     1.5212   1.5800   1.5893   1.6053   1.6413   1.6836   1.7289   1.7483
     1.7638   1.7950   1.8131   1.8302   1.8631   1.8783   1.9367   1.9905
     2.0444   2.1416   2.2183   2.2314   2.2472   2.2696   2.2885   2.3056
     2.3411   2.3592   2.3827   2.4059   2.4507   2.4860   2.4930   2.5186
     2.5542   2.5898   2.5949   2.6159   2.6583   2.6745   2.6831   2.7037
     2.7349   2.7579   2.7661   2.8136

          k =-0.3333 0.0000-0.3333 (244527 PWs)   bands (ev):

   -31.3817 -31.3647 -31.2376 -31.2366 -31.2341 -31.2068 -31.1784 -31.1646
   -31.1595 -31.1536 -31.1500 -31.1487 -31.1386 -31.1307 -31.1240 -31.1231
   -31.1173 -31.1167 -31.1084 -31.1056 -31.1015 -31.0940 -31.0927 -31.0903
   -31.0855 -31.0848 -31.0782 -31.0659 -31.0642 -31.0620 -31.0598 -31.0591
   -31.0574 -31.0540 -31.0511 -31.0509 -31.0485 -31.0454 -31.0388 -31.0381
   -31.0336 -31.0239 -31.0231 -31.0221 -31.0021 -31.0000 -30.9959 -30.9807
   -30.9692 -30.9555 -30.9514 -30.9508 -30.9460 -30.8969 -15.0177 -14.9569
   -14.9194 -14.9120 -14.8700 -14.8540 -14.8157 -14.7918 -14.7502 -14.7285
   -14.7239 -14.7193 -14.7088 -14.7085 -14.7018 -14.6996 -14.6982 -14.6782
   -14.6750 -14.6740 -14.6699 -14.6665 -14.6639 -14.6566 -14.6562 -14.6545
   -14.6451 -14.6429 -14.6424 -14.6376 -14.6370 -14.6353 -14.6344 -14.6335
   -14.6317 -14.6293 -14.6289 -14.6278 -14.6267 -14.6234 -14.6233 -14.6231
   -14.6223 -14.6215 -14.6197 -14.6176 -14.6160 -14.6133 -14.6122 -14.6102
   -14.5982 -14.5966 -14.5939 -14.5919 -14.5901 -14.5892 -14.5883 -14.5870
   -14.5864 -14.5856 -14.5842 -14.5836 -14.5814 -14.5802 -14.5787 -14.5781
   -14.5771 -14.5759 -14.5750 -14.5724 -14.5705 -14.5698 -14.5693 -14.5670
   -14.5647 -14.5643 -14.5628 -14.5589 -14.5581 -14.5573 -14.5570 -14.5562
   -14.5544 -14.5536 -14.5529 -14.5507 -14.5492 -14.5445 -14.5434 -14.5426
   -14.5421 -14.5408 -14.5395 -14.5363 -14.5356 -14.5348 -14.5328 -14.5325
   -14.5312 -14.5302 -14.5292 -14.5276 -14.5265 -14.5249 -14.5242 -14.5234
   -14.5232 -14.5224 -14.5218 -14.5204 -14.5188 -14.5165 -14.5157 -14.5143
   -14.5105 -14.5089 -14.5078 -14.5071 -14.5056 -14.5045 -14.5038 -14.5028
   -14.5006 -14.4990 -14.4981 -14.4960 -14.4952 -14.4949 -14.4940 -14.4930
   -14.4920 -14.4899 -14.4877 -14.4836 -14.4783 -14.4781 -14.4748 -14.4746
   -14.4732 -14.4729 -14.4708 -14.4683 -14.4584 -14.4565 -14.4454 -14.4437
   -14.4411 -14.4351 -14.4345 -14.4337 -14.4310 -14.4303 -14.4290 -14.4267
   -14.4231 -14.4189 -14.4164 -14.4118 -14.4078 -14.3914 -14.3799 -14.3669
    -0.6347  -0.4515  -0.3709  -0.2193  -0.0583  -0.0001   0.0956   0.1660
     0.1822   0.2496   0.3090   0.3803   0.4531   0.4713   0.6027   0.6266
     0.8358   0.8767   0.9107   0.9474   0.9795   1.0319   1.0703   1.0953
     1.1447   1.1754   1.2021   1.2343   1.3342   1.3958   1.4494   1.4648
     1.5375   1.5600   1.5926   1.6174   1.6438   1.6905   1.7118   1.7455
     1.7841   1.7992   1.8252   1.8375   1.8627   1.8800   1.9140   1.9871
     2.0316   2.1806   2.1954   2.2062   2.2530   2.2653   2.2731   2.3085
     2.3432   2.3688   2.3756   2.4177   2.4482   2.4793   2.4993   2.5280
     2.5660   2.5758   2.6103   2.6352   2.6490   2.6671   2.6939   2.7111
     2.7332   2.7568   2.7781   2.7959

          k = 0.3333-0.3333 0.0000 (244527 PWs)   bands (ev):

   -31.3817 -31.3647 -31.2376 -31.2366 -31.2341 -31.2068 -31.1784 -31.1646
   -31.1595 -31.1536 -31.1500 -31.1487 -31.1386 -31.1307 -31.1240 -31.1231
   -31.1173 -31.1167 -31.1084 -31.1056 -31.1015 -31.0940 -31.0927 -31.0903
   -31.0855 -31.0848 -31.0782 -31.0659 -31.0642 -31.0620 -31.0598 -31.0591
   -31.0574 -31.0540 -31.0511 -31.0509 -31.0485 -31.0454 -31.0388 -31.0381
   -31.0336 -31.0239 -31.0231 -31.0221 -31.0021 -31.0000 -30.9959 -30.9807
   -30.9692 -30.9555 -30.9514 -30.9508 -30.9460 -30.8969 -15.0177 -14.9569
   -14.9194 -14.9120 -14.8700 -14.8540 -14.8157 -14.7918 -14.7502 -14.7285
   -14.7238 -14.7193 -14.7088 -14.7085 -14.7018 -14.6996 -14.6982 -14.6782
   -14.6749 -14.6740 -14.6701 -14.6665 -14.6639 -14.6566 -14.6562 -14.6545
   -14.6451 -14.6428 -14.6424 -14.6376 -14.6370 -14.6353 -14.6346 -14.6335
   -14.6317 -14.6292 -14.6290 -14.6278 -14.6266 -14.6235 -14.6233 -14.6229
   -14.6219 -14.6216 -14.6196 -14.6176 -14.6160 -14.6133 -14.6122 -14.6104
   -14.5983 -14.5971 -14.5939 -14.5919 -14.5900 -14.5893 -14.5885 -14.5867
   -14.5861 -14.5857 -14.5841 -14.5834 -14.5811 -14.5807 -14.5788 -14.5780
   -14.5766 -14.5759 -14.5748 -14.5729 -14.5704 -14.5699 -14.5689 -14.5670
   -14.5647 -14.5645 -14.5629 -14.5588 -14.5581 -14.5575 -14.5571 -14.5561
   -14.5539 -14.5533 -14.5527 -14.5515 -14.5495 -14.5447 -14.5435 -14.5425
   -14.5419 -14.5411 -14.5397 -14.5363 -14.5356 -14.5348 -14.5327 -14.5322
   -14.5311 -14.5301 -14.5291 -14.5278 -14.5265 -14.5248 -14.5243 -14.5233
   -14.5232 -14.5225 -14.5218 -14.5208 -14.5186 -14.5165 -14.5158 -14.5138
   -14.5105 -14.5088 -14.5081 -14.5072 -14.5055 -14.5043 -14.5038 -14.5029
   -14.5003 -14.4992 -14.4982 -14.4960 -14.4950 -14.4949 -14.4943 -14.4930
   -14.4921 -14.4898 -14.4877 -14.4836 -14.4781 -14.4780 -14.4749 -14.4748
   -14.4732 -14.4728 -14.4708 -14.4683 -14.4584 -14.4564 -14.4454 -14.4437
   -14.4408 -14.4352 -14.4346 -14.4337 -14.4311 -14.4303 -14.4292 -14.4266
   -14.4231 -14.4187 -14.4168 -14.4118 -14.4076 -14.3914 -14.3799 -14.3669
    -0.6278  -0.4484  -0.3969  -0.2197  -0.0374  -0.0149   0.1050   0.1782
     0.2085   0.2464   0.3429   0.3651   0.3997   0.4798   0.5796   0.6164
     0.8645   0.9009   0.9251   0.9339   0.9678   1.0012   1.0649   1.0997
     1.1528   1.1701   1.1824   1.2258   1.3161   1.4245   1.4623   1.4676
     1.5235   1.5906   1.6027   1.6309   1.6634   1.6853   1.7342   1.7575
     1.7685   1.7906   1.8081   1.8303   1.8591   1.8739   1.8903   1.9919
     2.0130   2.1976   2.2032   2.2358   2.2472   2.2590   2.2797   2.3217
     2.3280   2.3485   2.3867   2.3996   2.4267   2.4615   2.5047   2.5506
     2.5628   2.5829   2.6023   2.6369   2.6573   2.6729   2.6918   2.7202
     2.7429   2.7730   2.7872   2.8037

          k =-0.3333-0.3333 0.0000 (244527 PWs)   bands (ev):

   -31.3817 -31.3647 -31.2376 -31.2366 -31.2341 -31.2068 -31.1784 -31.1646
   -31.1595 -31.1536 -31.1500 -31.1487 -31.1386 -31.1307 -31.1240 -31.1231
   -31.1173 -31.1167 -31.1084 -31.1056 -31.1015 -31.0940 -31.0927 -31.0903
   -31.0855 -31.0848 -31.0782 -31.0659 -31.0642 -31.0620 -31.0598 -31.0591
   -31.0574 -31.0540 -31.0511 -31.0509 -31.0485 -31.0454 -31.0388 -31.0381
   -31.0336 -31.0239 -31.0231 -31.0221 -31.0021 -31.0000 -30.9959 -30.9807
   -30.9692 -30.9555 -30.9514 -30.9508 -30.9460 -30.8969 -15.0177 -14.9569
   -14.9194 -14.9120 -14.8700 -14.8540 -14.8157 -14.7918 -14.7502 -14.7285
   -14.7238 -14.7193 -14.7088 -14.7085 -14.7018 -14.6996 -14.6982 -14.6782
   -14.6749 -14.6739 -14.6701 -14.6665 -14.6639 -14.6566 -14.6562 -14.6545
   -14.6451 -14.6428 -14.6424 -14.6376 -14.6370 -14.6353 -14.6346 -14.6335
   -14.6317 -14.6292 -14.6290 -14.6278 -14.6266 -14.6235 -14.6233 -14.6230
   -14.6220 -14.6216 -14.6196 -14.6176 -14.6160 -14.6133 -14.6122 -14.6104
   -14.5983 -14.5971 -14.5939 -14.5919 -14.5901 -14.5893 -14.5883 -14.5867
   -14.5861 -14.5858 -14.5841 -14.5833 -14.5813 -14.5806 -14.5788 -14.5780
   -14.5768 -14.5758 -14.5748 -14.5728 -14.5704 -14.5699 -14.5690 -14.5670
   -14.5648 -14.5646 -14.5629 -14.5588 -14.5581 -14.5575 -14.5571 -14.5561
   -14.5539 -14.5533 -14.5527 -14.5515 -14.5495 -14.5447 -14.5434 -14.5425
   -14.5419 -14.5411 -14.5396 -14.5364 -14.5354 -14.5352 -14.5326 -14.5323
   -14.5310 -14.5301 -14.5293 -14.5276 -14.5264 -14.5249 -14.5243 -14.5233
   -14.5232 -14.5226 -14.5218 -14.5208 -14.5186 -14.5165 -14.5158 -14.5138
   -14.5105 -14.5088 -14.5082 -14.5072 -14.5055 -14.5044 -14.5037 -14.5029
   -14.5003 -14.4992 -14.4982 -14.4960 -14.4951 -14.4949 -14.4943 -14.4930
   -14.4921 -14.4898 -14.4877 -14.4836 -14.4781 -14.4780 -14.4750 -14.4747
   -14.4731 -14.4729 -14.4708 -14.4683 -14.4584 -14.4564 -14.4454 -14.4437
   -14.4408 -14.4352 -14.4346 -14.4337 -14.4311 -14.4303 -14.4292 -14.4266
   -14.4231 -14.4187 -14.4168 -14.4118 -14.4076 -14.3914 -14.3799 -14.3669
    -0.6271  -0.4641  -0.3679  -0.2407  -0.0485   0.0176   0.1135   0.1567
     0.1693   0.2582   0.3390   0.3954   0.4348   0.4804   0.5449   0.6263
     0.8506   0.8825   0.9084   0.9342   0.9771   1.0079   1.0700   1.1059
     1.1531   1.1668   1.1972   1.2219   1.3180   1.4129   1.4557   1.5002
     1.5268   1.5843   1.6159   1.6320   1.6592   1.6768   1.7107   1.7471
     1.7860   1.7899   1.8066   1.8379   1.8691   1.8852   1.8995   1.9815
     2.0087   2.1767   2.1979   2.2016   2.2432   2.2585   2.2820   2.2968
     2.3390   2.3893   2.3933   2.4126   2.4365   2.4717   2.5020   2.5363
     2.5642   2.5808   2.5943   2.6328   2.6563   2.6829   2.7037   2.7145
     2.7392   2.7469   2.7642   2.7859

          k =-0.3333-0.3333 0.3333 (244557 PWs)   bands (ev):

   -31.3817 -31.3647 -31.2376 -31.2366 -31.2341 -31.2068 -31.1784 -31.1646
   -31.1595 -31.1536 -31.1500 -31.1487 -31.1386 -31.1307 -31.1240 -31.1231
   -31.1173 -31.1167 -31.1084 -31.1056 -31.1015 -31.0940 -31.0927 -31.0903
   -31.0855 -31.0848 -31.0782 -31.0659 -31.0642 -31.0620 -31.0598 -31.0591
   -31.0574 -31.0540 -31.0511 -31.0509 -31.0485 -31.0454 -31.0388 -31.0381
   -31.0336 -31.0239 -31.0231 -31.0221 -31.0021 -31.0000 -30.9959 -30.9807
   -30.9692 -30.9555 -30.9514 -30.9508 -30.9460 -30.8969 -15.0177 -14.9569
   -14.9194 -14.9120 -14.8700 -14.8540 -14.8157 -14.7918 -14.7502 -14.7285
   -14.7238 -14.7193 -14.7088 -14.7085 -14.7018 -14.6996 -14.6982 -14.6782
   -14.6749 -14.6740 -14.6701 -14.6665 -14.6639 -14.6566 -14.6562 -14.6545
   -14.6451 -14.6428 -14.6424 -14.6376 -14.6370 -14.6353 -14.6345 -14.6335
   -14.6316 -14.6293 -14.6289 -14.6278 -14.6267 -14.6234 -14.6233 -14.6231
   -14.6221 -14.6215 -14.6197 -14.6175 -14.6160 -14.6132 -14.6122 -14.6103
   -14.5983 -14.5972 -14.5941 -14.5918 -14.5899 -14.5895 -14.5882 -14.5870
   -14.5866 -14.5858 -14.5842 -14.5834 -14.5812 -14.5803 -14.5787 -14.5777
   -14.5770 -14.5756 -14.5749 -14.5726 -14.5706 -14.5699 -14.5689 -14.5670
   -14.5647 -14.5645 -14.5629 -14.5588 -14.5581 -14.5575 -14.5569 -14.5563
   -14.5543 -14.5537 -14.5529 -14.5508 -14.5492 -14.5448 -14.5434 -14.5423
   -14.5417 -14.5408 -14.5402 -14.5364 -14.5357 -14.5346 -14.5328 -14.5324
   -14.5312 -14.5302 -14.5297 -14.5272 -14.5262 -14.5251 -14.5244 -14.5233
   -14.5232 -14.5224 -14.5218 -14.5206 -14.5188 -14.5166 -14.5158 -14.5139
   -14.5106 -14.5088 -14.5080 -14.5072 -14.5053 -14.5046 -14.5038 -14.5028
   -14.5008 -14.4989 -14.4981 -14.4959 -14.4953 -14.4949 -14.4940 -14.4930
   -14.4919 -14.4898 -14.4877 -14.4836 -14.4783 -14.4781 -14.4748 -14.4746
   -14.4731 -14.4729 -14.4708 -14.4683 -14.4584 -14.4565 -14.4454 -14.4437
   -14.4411 -14.4351 -14.4346 -14.4337 -14.4310 -14.4303 -14.4290 -14.4267
   -14.4231 -14.4189 -14.4164 -14.4118 -14.4078 -14.3914 -14.3799 -14.3669
    -0.5706  -0.4242  -0.3361  -0.3032  -0.2125  -0.1131  -0.0523   0.0797
     0.3383   0.4350   0.4524   0.5030   0.5966   0.6215   0.6674   0.7078
     0.7290   0.7964   0.8391   0.8920   0.9368   0.9821   1.0524   1.1096
     1.1556   1.1858   1.2100   1.2389   1.2846   1.2925   1.3347   1.3859
     1.4139   1.4382   1.4768   1.5267   1.5777   1.5972   1.7748   1.8025
     1.8352   1.8587   1.8999   1.9207   1.9690   1.9865   2.0263   2.0519
     2.0731   2.1046   2.1451   2.2348   2.2525   2.2826   2.2889   2.3227
     2.3376   2.3690   2.3874   2.4089   2.4466   2.4539   2.4764   2.4863
     2.5140   2.5170   2.5551   2.5757   2.6368   2.6488   2.6725   2.6829
     2.8102   2.8447   2.8559   2.8587

          k =-0.3333 0.3333-0.3333 (244557 PWs)   bands (ev):

   -31.3817 -31.3647 -31.2376 -31.2366 -31.2341 -31.2068 -31.1784 -31.1646
   -31.1595 -31.1536 -31.1500 -31.1487 -31.1386 -31.1307 -31.1240 -31.1231
   -31.1173 -31.1167 -31.1084 -31.1056 -31.1015 -31.0940 -31.0927 -31.0903
   -31.0855 -31.0848 -31.0782 -31.0659 -31.0642 -31.0620 -31.0598 -31.0591
   -31.0574 -31.0540 -31.0511 -31.0509 -31.0485 -31.0454 -31.0388 -31.0381
   -31.0336 -31.0239 -31.0231 -31.0221 -31.0021 -31.0000 -30.9959 -30.9807
   -30.9692 -30.9555 -30.9514 -30.9508 -30.9460 -30.8969 -15.0177 -14.9569
   -14.9194 -14.9120 -14.8700 -14.8540 -14.8157 -14.7918 -14.7502 -14.7285
   -14.7238 -14.7193 -14.7088 -14.7085 -14.7018 -14.6996 -14.6982 -14.6782
   -14.6749 -14.6739 -14.6701 -14.6665 -14.6639 -14.6566 -14.6562 -14.6545
   -14.6451 -14.6428 -14.6424 -14.6376 -14.6370 -14.6353 -14.6344 -14.6335
   -14.6317 -14.6292 -14.6289 -14.6278 -14.6268 -14.6234 -14.6233 -14.6231
   -14.6221 -14.6214 -14.6197 -14.6175 -14.6161 -14.6132 -14.6122 -14.6103
   -14.5983 -14.5972 -14.5940 -14.5919 -14.5901 -14.5894 -14.5883 -14.5870
   -14.5865 -14.5856 -14.5842 -14.5834 -14.5811 -14.5803 -14.5788 -14.5779
   -14.5767 -14.5758 -14.5749 -14.5725 -14.5705 -14.5698 -14.5690 -14.5670
   -14.5648 -14.5644 -14.5629 -14.5588 -14.5582 -14.5574 -14.5571 -14.5563
   -14.5544 -14.5536 -14.5529 -14.5507 -14.5492 -14.5448 -14.5434 -14.5423
   -14.5417 -14.5408 -14.5402 -14.5365 -14.5357 -14.5345 -14.5328 -14.5323
   -14.5312 -14.5303 -14.5295 -14.5275 -14.5264 -14.5251 -14.5241 -14.5234
   -14.5233 -14.5224 -14.5218 -14.5204 -14.5188 -14.5165 -14.5157 -14.5143
   -14.5105 -14.5089 -14.5079 -14.5071 -14.5056 -14.5045 -14.5038 -14.5028
   -14.5006 -14.4991 -14.4981 -14.4960 -14.4953 -14.4948 -14.4940 -14.4930
   -14.4919 -14.4898 -14.4877 -14.4836 -14.4783 -14.4781 -14.4748 -14.4746
   -14.4731 -14.4729 -14.4708 -14.4683 -14.4584 -14.4565 -14.4454 -14.4437
   -14.4410 -14.4351 -14.4346 -14.4337 -14.4310 -14.4303 -14.4290 -14.4267
   -14.4231 -14.4189 -14.4164 -14.4118 -14.4078 -14.3914 -14.3799 -14.3669
    -0.5707  -0.4200  -0.3545  -0.2923  -0.1900  -0.1449  -0.0299   0.0687
     0.3440   0.4097   0.4566   0.5200   0.6019   0.6129   0.6531   0.7171
     0.7380   0.7842   0.8358   0.9099   0.9649   0.9867   1.0660   1.0865
     1.1540   1.1691   1.1996   1.2335   1.2695   1.3128   1.3388   1.3632
     1.3966   1.4437   1.4943   1.5333   1.5665   1.6064   1.7855   1.8071
     1.8315   1.8778   1.8853   1.9165   1.9649   1.9991   2.0225   2.0431
     2.0839   2.0979   2.1303   2.2119   2.2632   2.2815   2.3033   2.3142
     2.3472   2.3650   2.4040   2.4167   2.4313   2.4635   2.4785   2.5050
     2.5218   2.5409   2.5549   2.5792   2.6139   2.6369   2.6817   2.7069
     2.7876   2.8204   2.8372   2.8684

          k = 0.3333-0.3333-0.3333 (244557 PWs)   bands (ev):

   -31.3817 -31.3647 -31.2376 -31.2366 -31.2341 -31.2068 -31.1784 -31.1646
   -31.1595 -31.1536 -31.1500 -31.1487 -31.1386 -31.1307 -31.1240 -31.1231
   -31.1173 -31.1167 -31.1084 -31.1056 -31.1015 -31.0940 -31.0927 -31.0903
   -31.0855 -31.0848 -31.0782 -31.0659 -31.0642 -31.0620 -31.0598 -31.0591
   -31.0574 -31.0540 -31.0511 -31.0509 -31.0485 -31.0454 -31.0388 -31.0381
   -31.0336 -31.0239 -31.0231 -31.0221 -31.0021 -31.0000 -30.9959 -30.9807
   -30.9692 -30.9555 -30.9514 -30.9508 -30.9460 -30.8969 -15.0177 -14.9569
   -14.9194 -14.9120 -14.8700 -14.8540 -14.8157 -14.7918 -14.7502 -14.7285
   -14.7238 -14.7193 -14.7088 -14.7085 -14.7018 -14.6996 -14.6982 -14.6782
   -14.6749 -14.6739 -14.6701 -14.6665 -14.6639 -14.6566 -14.6562 -14.6545
   -14.6451 -14.6428 -14.6425 -14.6376 -14.6370 -14.6353 -14.6345 -14.6335
   -14.6316 -14.6292 -14.6289 -14.6278 -14.6268 -14.6234 -14.6233 -14.6230
   -14.6221 -14.6214 -14.6197 -14.6175 -14.6161 -14.6132 -14.6122 -14.6103
   -14.5983 -14.5972 -14.5940 -14.5919 -14.5900 -14.5895 -14.5881 -14.5870
   -14.5866 -14.5858 -14.5841 -14.5835 -14.5810 -14.5804 -14.5788 -14.5778
   -14.5767 -14.5758 -14.5750 -14.5726 -14.5705 -14.5699 -14.5689 -14.5670
   -14.5647 -14.5645 -14.5629 -14.5589 -14.5581 -14.5575 -14.5569 -14.5563
   -14.5544 -14.5536 -14.5530 -14.5508 -14.5492 -14.5446 -14.5435 -14.5425
   -14.5420 -14.5410 -14.5395 -14.5363 -14.5356 -14.5349 -14.5328 -14.5325
   -14.5312 -14.5301 -14.5291 -14.5275 -14.5264 -14.5249 -14.5244 -14.5233
   -14.5232 -14.5224 -14.5218 -14.5206 -14.5188 -14.5165 -14.5158 -14.5139
   -14.5106 -14.5088 -14.5079 -14.5073 -14.5053 -14.5047 -14.5038 -14.5028
   -14.5007 -14.4989 -14.4982 -14.4960 -14.4952 -14.4949 -14.4940 -14.4930
   -14.4919 -14.4898 -14.4877 -14.4836 -14.4783 -14.4781 -14.4748 -14.4746
   -14.4732 -14.4729 -14.4708 -14.4683 -14.4584 -14.4565 -14.4454 -14.4437
   -14.4411 -14.4351 -14.4346 -14.4337 -14.4310 -14.4303 -14.4290 -14.4267
   -14.4231 -14.4189 -14.4164 -14.4118 -14.4078 -14.3914 -14.3799 -14.3669
    -0.5727  -0.4067  -0.3534  -0.3168  -0.1619  -0.1455  -0.0677   0.0938
     0.3712   0.4012   0.4249   0.5519   0.5740   0.6392   0.6590   0.6807
     0.7403   0.7943   0.8325   0.8814   0.9765   0.9978   1.0426   1.1047
     1.1462   1.1731   1.2043   1.2390   1.2753   1.3231   1.3426   1.3853
     1.4145   1.4274   1.4642   1.5237   1.5780   1.5969   1.7872   1.8161
     1.8332   1.8650   1.8906   1.9003   1.9818   2.0002   2.0254   2.0336
     2.0736   2.0821   2.1500   2.2496   2.2674   2.2765   2.2910   2.3203
     2.3302   2.3844   2.3984   2.4198   2.4322   2.4519   2.4721   2.4896
     2.5070   2.5409   2.5584   2.5856   2.6227   2.6378   2.6624   2.6777
     2.7724   2.8121   2.8611   2.8831

     the Fermi energy is     1.2618 ev

!    total energy              =   -6102.05673725 Ry

     total all-electron energy =    -65028.947175 Ry
     estimated scf accuracy    <       0.00000044 Ry
     smearing contrib. (-TS)   =      -0.02782419 Ry
     internal energy E=F+TS    =   -6102.02891306 Ry

     The total energy is F=E-TS. E is the sum of the following terms:
     one-electron contribution =   -2257.92781235 Ry
     hartree contribution      =    1176.19396044 Ry
     xc contribution           =    -602.51083409 Ry
     ewald contribution        =   -1425.12197863 Ry
     one-center paw contrib.   =   -2992.66224843 Ry

     convergence has been achieved in  16 iterations

     Forces acting on atoms (cartesian axes, Ry/au):

     atom    1 type  1   force =    -0.00471438   -0.00748521    0.00744595
     atom    2 type  1   force =     0.00523090   -0.00315862    0.00252541
     atom    3 type  1   force =     0.00015863    0.00136587    0.00271534
     atom    4 type  1   force =    -0.00054618    0.00113007   -0.00116596
     atom    5 type  1   force =     0.00199246    0.00265329    0.00295546
     atom    6 type  1   force =     0.00000302    0.01076123    0.01132899
     atom    7 type  1   force =    -0.00717371   -0.01177128   -0.02004311
     atom    8 type  1   force =    -0.00743720   -0.00499559    0.00255189
     atom    9 type  1   force =    -0.00347711   -0.00149644    0.00215689
     atom   10 type  1   force =     0.00248020    0.00312205    0.00178781
     atom   11 type  1   force =    -0.00616991   -0.00073844    0.00288897
     atom   12 type  1   force =     0.01055632    0.00090548   -0.00039258
     atom   13 type  1   force =    -0.00457662   -0.00116983   -0.00895503
     atom   14 type  1   force =     0.00537425    0.00670906   -0.00057809
     atom   15 type  1   force =     0.00043359   -0.00153131    0.00102620
     atom   16 type  1   force =     0.00375655   -0.00918795   -0.00518759
     atom   17 type  1   force =    -0.00282666    0.00095134   -0.00694691
     atom   18 type  1   force =    -0.00096068   -0.00262930   -0.00241417
     atom   19 type  1   force =    -0.00461645    0.00901177   -0.00003822
     atom   20 type  1   force =    -0.01102639    0.00048098   -0.00226073
     atom   21 type  1   force =     0.00948628    0.00195552   -0.00085913
     atom   22 type  1   force =     0.00089045   -0.00148650   -0.00047394
     atom   23 type  1   force =     0.00272712   -0.00398124   -0.00607357
     atom   24 type  1   force =    -0.00230607   -0.00006431   -0.01111162
     atom   25 type  1   force =    -0.00310035    0.00366295   -0.00720544
     atom   26 type  1   force =     0.00222041   -0.00678592    0.00554427
     atom   27 type  1   force =    -0.00303404    0.00365051   -0.00617123
     atom   28 type  1   force =     0.02003839    0.00346161    0.00078707
     atom   29 type  1   force =     0.00082701    0.00264582    0.00722710
     atom   30 type  1   force =    -0.00684584   -0.00508643    0.00279629
     atom   31 type  1   force =     0.00325462    0.00498673   -0.00475524
     atom   32 type  1   force =    -0.00050094    0.00195194    0.00377234
     atom   33 type  1   force =    -0.00039587    0.00851316   -0.01220111
     atom   34 type  1   force =    -0.00639185   -0.00260006   -0.01315577
     atom   35 type  1   force =     0.01001095   -0.00102908    0.00340301
     atom   36 type  1   force =     0.00351739   -0.02211304   -0.01058308
     atom   37 type  1   force =    -0.00301094    0.00015958    0.01156585
     atom   38 type  1   force =    -0.01264703   -0.00229428    0.00261354
     atom   39 type  1   force =     0.00247586    0.01218550   -0.01382525
     atom   40 type  1   force =    -0.01011851   -0.00732504    0.01965929
     atom   41 type  1   force =    -0.01090010   -0.00181628    0.00874084
     atom   42 type  1   force =     0.00538247    0.00327782   -0.00384550
     atom   43 type  1   force =     0.00420282    0.00409828   -0.00448873
     atom   44 type  1   force =    -0.00137742    0.00280175    0.00579387
     atom   45 type  1   force =     0.01197889   -0.00173337    0.00107792
     atom   46 type  1   force =     0.00097701   -0.00441214    0.00126837
     atom   47 type  1   force =    -0.00698037    0.00513140    0.01588163
     atom   48 type  1   force =     0.00716475   -0.00507791    0.00338259
     atom   49 type  1   force =    -0.00180967    0.00064448   -0.00031045
     atom   50 type  1   force =     0.00303822   -0.00093513    0.01362269
     atom   51 type  1   force =     0.01265820   -0.00405012   -0.00605897
     atom   52 type  1   force =     0.00105902    0.00434251   -0.00259747
     atom   53 type  1   force =    -0.00187714    0.00482758    0.00416835
     atom   54 type  1   force =    -0.00707436    0.00956654    0.00301096

     Total force =     0.083743     Total SCF correction =     0.001662


     Computing stress (Cartesian axis) and pressure

          total   stress  (Ry/bohr**3)                   (kbar)     P=        0.77
   0.00000714   0.00000406  -0.00000536            1.05        0.60       -0.79
   0.00000406   0.00000183  -0.00000145            0.60        0.27       -0.21
  -0.00000536  -0.00000145   0.00000664           -0.79       -0.21        0.98


     init_run     :   2636.35s CPU   2654.08s WALL (       1 calls)
     electrons    :  92149.66s CPU  92618.40s WALL (       1 calls)
     forces       :    975.61s CPU    980.29s WALL (       1 calls)
     stress       :   9260.82s CPU   9282.10s WALL (       1 calls)

     Called by init_run:
     wfcinit      :   2606.21s CPU   2621.12s WALL (       1 calls)
     potinit      :     12.40s CPU     12.83s WALL (       1 calls)
     hinit0       :      1.85s CPU      1.93s WALL (       1 calls)

     Called by electrons:
     c_bands      :  80760.68s CPU  81145.17s WALL (      17 calls)
     sum_band     :  10961.50s CPU  11005.82s WALL (      17 calls)
     v_of_rho     :     67.17s CPU     69.28s WALL (      17 calls)
     newd         :    236.83s CPU    276.43s WALL (      17 calls)
     PAW_pot      :    125.47s CPU    125.93s WALL (      17 calls)
     mix_rho      :     15.75s CPU     16.07s WALL (      17 calls)

     Called by c_bands:
     init_us_2    :    342.18s CPU    343.75s WALL (     518 calls)
     cegterg      :  78984.66s CPU  79367.72s WALL (     238 calls)

     Called by *egterg:
     cdiaghg      :    233.17s CPU    233.47s WALL (    1686 calls)
     h_psi        :  50546.05s CPU  50687.22s WALL (    1714 calls)
     s_psi        :   9365.89s CPU   9369.67s WALL (    1714 calls)
     g_psi        :    208.41s CPU    208.49s WALL (    1462 calls)

     Called by h_psi:
     h_psi:calbec :   8827.66s CPU   8832.72s WALL (    1714 calls)
     vloc_psi     :  32242.82s CPU  32255.60s WALL (    1714 calls)
     add_vuspsi   :   9366.68s CPU   9370.71s WALL (    1714 calls)

     General routines
     calbec       :  13362.42s CPU  13369.49s WALL (    2022 calls)
     fft          :     50.31s CPU     50.32s WALL (     245 calls)
     ffts         :      5.48s CPU      5.48s WALL (      34 calls)
     fftw         :  34169.85s CPU  34180.48s WALL (  405170 calls)
     interpolate  :      7.23s CPU      7.27s WALL (      17 calls)

     Parallel routines

     PWSCF        :   1d 5h10m CPU   1d 5h18m WALL


   This run was terminated on:   6:45:34  24Mar2024            

=------------------------------------------------------------------------------=
   JOB DONE.
=------------------------------------------------------------------------------=
