BEGIN_CFG
 Size
    12
 Supercell
         8.000000      0.000000      0.000000
         0.000000     16.000000      0.000000
         0.000000      0.000000     24.000000
 AtomData:  id type       cartes_x      cartes_y      cartes_z
             1    0       0.000000      0.000000      0.000000
             2    0       0.000000      8.000000      0.000000
             3    0       4.000000      4.000000      4.000000
             4    0       4.000000     12.000000      4.000000
             5    0       0.000000      0.000000      8.000000
             6    0       0.000000      8.000000      8.000000
             7    0       4.000000      4.000000     12.000000
             8    0       4.000000     12.000000     12.000000
             9    0       0.000000      0.000000     16.000000
            10    0       0.000000      8.000000     16.000000
            11    0       4.000000      4.000000     20.000000
            12    0       4.000000     12.000000     20.000000
 Feature   MV_grade	18.255111
 Feature   ind	1
 Feature   selected_eqn_inds	0
END_CFG

