BEGIN_CFG
 Size
    2
 Supercell
    5.127601755364717     0.0      0.0 
    0.0     5.127601755364717      0.0 
    0.0     0.0      5.127601755364717 
 AtomData:  id type    cartes_x    cartes_y    cartes_z    fx    fy    fz
    1    0   5.021929574589283    0.8241450728548558    4.860748541011149    0.22891355918400905    -0.43058987787153236    0.47981519425590763
    2    0   2.6694730584577924    1.7396558048275024    2.8306540920359264    -0.22891355918400905    0.43058987787153236    -0.47981519425590763
 Energy
    -1.2795996451918654
 PlusStress:  xx          yy          zz          yz          xz          xy
    2.060611464590897   -0.524219952696729    1.525622412511732    -0.3629310274632372    0.20919285007260263    -0.1737909831372391
 Feature EFS_by Qe
END_CFG