BEGIN_CFG
 Size
    2
 Supercell
         5.021881      0.000000      0.000000
         0.000000      5.021881      0.000000
         0.000000      0.000000      5.021881
 AtomData:  id type       cartes_x      cartes_y      cartes_z
             1    0       0.000000      0.000000      0.000000
             2    0       1.510940      2.510940      3.510940
 Feature   MV_grade	15854340.196228
 Feature   ind	1
 Feature   selected_eqn_inds	0
END_CFG
