
     Program PWSCF v.6.6 starts on 31Jan2024 at 16:26:57 

     This program is part of the open-source Quantum ESPRESSO suite
     for quantum simulation of materials; please cite
         "P. Giannozzi et al., J. Phys.:Condens. Matter 21 395502 (2009);
         "P. Giannozzi et al., J. Phys.:Condens. Matter 29 465901 (2017);
          URL http://www.quantum-espresso.org", 
     in publications or presentations arising from this work. More details at
     http://www.quantum-espresso.org/quote

     Parallel version (MPI & OpenMP), running on       1 processor cores
     Number of MPI processes:                 1
     Threads/MPI process:                     1

     MPI processes distributed on     1 nodes
     Fft bands division:     nmany     =       1
     Waiting for input...
     Reading input from standard input

     Current dimensions of program PWSCF are:
     Max number of different atomic species (ntypx) = 10
     Max number of k-points (npk) =  40000
     Max angular momentum in pseudopotentials (lmaxx) =  3
     file K.pbe-spn-kjpaw_psl.1.0.0.UPF: wavefunction(s)  3S renormalized

     Subspace diagonalization in iterative solution of the eigenvalue problem:
     a serial algorithm will be used

     Message from routine setup:
     using ibrav=0 with symmetry is DISCOURAGED, use correct ibrav instead

     G-vector sticks info
     --------------------
     sticks:   dense  smooth     PW     G-vecs:    dense   smooth      PW
     Sum        1637    1637    507                41859    41859    7155



     bravais-lattice index     =            0
     lattice parameter (alat)  =       9.5163  a.u.
     unit-cell volume          =     663.4149 (a.u.)^3
     number of atoms/cell      =            1
     number of atomic types    =            1
     number of electrons       =         9.00
     number of Kohn-Sham states=            9
     kinetic-energy cutoff     =      60.0000  Ry
     charge density cutoff     =     240.0000  Ry
     convergence threshold     =      1.0E-06
     mixing beta               =       0.7000
     number of iterations used =            8  plain     mixing
     Exchange-correlation= SLA PW PBX PBC
                           (   1   4   3   4   0   0   0)

     celldm(1)=   9.516268  celldm(2)=   0.000000  celldm(3)=   0.000000
     celldm(4)=   0.000000  celldm(5)=   0.000000  celldm(6)=   0.000000

     crystal axes: (cart. coord. in units of alat)
               a(1) = (   0.577349   0.577350   0.577351 )  
               a(2) = (  -0.577352   0.577353   0.577354 )  
               a(3) = (  -0.577356  -0.577357   0.577358 )  

     reciprocal axes: (cart. coord. in units 2 pi/alat)
               b(1) = (  0.866027 -0.000000  0.866024 )  
               b(2) = ( -0.866022  0.866021 -0.000000 )  
               b(3) = ( -0.000000 -0.866016  0.866014 )  


     PseudoPot. # 1 for K  read from file:
     /global/home/hpc5146/K.pbe-spn-kjpaw_psl.1.0.0.UPF
     MD5 check sum: 7d58810084cac21f60fbe77ea2b688fd
     Pseudo is Projector augmented-wave + core cor, Zval =  9.0
     Generated using "atomic" code by A. Dal Corso v.5.1
     Shape of augmentation charge: PSQ
     Using radial grid of 1165 points,  6 beta functions with: 
                l(1) =   0
                l(2) =   0
                l(3) =   1
                l(4) =   1
                l(5) =   2
                l(6) =   2
     Q(r) pseudized with 0 coefficients 


     atomic species   valence    mass     pseudopotential
        K              9.00    39.09830     K ( 1.00)

      2 Sym. Ops., with inversion, found



   Cartesian axes

     site n.     atom                  positions (alat units)
         1           K   tau(   1) = (   0.0000000   0.0000000   0.0000000  )

     number of k points=   260  Gaussian smearing, width (Ry)=  0.0100

     Number of k-points >= 100: set verbosity='high' to print them.

     Dense  grid:    41859 G-vectors     FFT dimensions: (  48,  48,  48)

     Estimated max dynamical RAM per process >     342.69 MB

     Check: negative core charge=   -0.000003

     Initial potential from superposition of free atoms

     starting charge    8.98117, renormalised to    9.00000
     Starting wfcs are    8 randomized atomic wfcs +    1 random wfcs
     Checking if some PAW data can be deallocated... 

     total cpu time spent up to now is       12.1 secs

     Self-consistent Calculation

     iteration #  1     ecut=    60.00 Ry     beta= 0.70
     Davidson diagonalization with overlap
     ethr =  1.00E-02,  avg # of iterations =  7.6

     Threshold (ethr) on eigenvalues was too large:
     Diagonalizing with lowered threshold

     Davidson diagonalization with overlap
     c_bands:  1 eigenvalues not converged
     c_bands:  1 eigenvalues not converged
     c_bands:  1 eigenvalues not converged
     c_bands:  1 eigenvalues not converged
     c_bands:  1 eigenvalues not converged
     c_bands:  1 eigenvalues not converged
     c_bands:  1 eigenvalues not converged
     c_bands:  1 eigenvalues not converged
     c_bands:  1 eigenvalues not converged
     c_bands:  1 eigenvalues not converged
     c_bands:  1 eigenvalues not converged
     c_bands:  1 eigenvalues not converged
     c_bands:  1 eigenvalues not converged
     c_bands:  1 eigenvalues not converged
     ethr =  1.47E-05,  avg # of iterations = 10.3

     total cpu time spent up to now is      109.7 secs

     total energy              =    -113.00655525 Ry
     estimated scf accuracy    <       0.00127686 Ry

     iteration #  2     ecut=    60.00 Ry     beta= 0.70
     Davidson diagonalization with overlap
     ethr =  1.42E-05,  avg # of iterations =  2.2

     total cpu time spent up to now is      139.8 secs

     total energy              =    -113.00675411 Ry
     estimated scf accuracy    <       0.00010848 Ry

     iteration #  3     ecut=    60.00 Ry     beta= 0.70
     Davidson diagonalization with overlap
     c_bands:  1 eigenvalues not converged
     c_bands:  1 eigenvalues not converged
     c_bands:  1 eigenvalues not converged
     c_bands:  1 eigenvalues not converged
     c_bands:  1 eigenvalues not converged
     c_bands:  1 eigenvalues not converged
     c_bands:  1 eigenvalues not converged
     c_bands:  1 eigenvalues not converged
     c_bands:  1 eigenvalues not converged
     ethr =  1.21E-06,  avg # of iterations =  5.7

     total cpu time spent up to now is      172.6 secs

     total energy              =    -113.00676531 Ry
     estimated scf accuracy    <       0.00000721 Ry

     iteration #  4     ecut=    60.00 Ry     beta= 0.70
     Davidson diagonalization with overlap
     ethr =  8.01E-08,  avg # of iterations =  2.1

     total cpu time spent up to now is      198.8 secs

     End of self-consistent calculation

     Number of k-points >= 100: set verbosity='high' to print the bands.

     the Fermi energy is     0.8000 ev

!    total energy              =    -113.00676593 Ry

     total all-electron energy =     -1204.245478 Ry
     estimated scf accuracy    <       0.00000006 Ry
     smearing contrib. (-TS)   =      -0.00083110 Ry
     internal energy E=F+TS    =    -113.00593483 Ry

     The total energy is F=E-TS. E is the sum of the following terms:
     one-electron contribution =     -40.66220208 Ry
     hartree contribution      =      21.03616858 Ry
     xc contribution           =     -11.13498558 Ry
     ewald contribution        =     -26.82603718 Ry
     one-center paw contrib.   =     -55.41887857 Ry

     convergence has been achieved in   4 iterations

     Forces acting on atoms (cartesian axes, Ry/au):

     atom    1 type  1   force =     0.00000000    0.00000000    0.00000000

     Total force =     0.000000     Total SCF correction =     0.000000


     Computing stress (Cartesian axis) and pressure

          total   stress  (Ry/bohr**3)                   (kbar)     P=       -6.11
  -0.00004155  -0.00000000   0.00000000           -6.11       -0.00        0.00
  -0.00000000  -0.00004155  -0.00000000           -0.00       -6.11       -0.00
   0.00000000  -0.00000000  -0.00004155            0.00       -0.00       -6.11


     init_run     :     11.05s CPU     11.23s WALL (       1 calls)
     electrons    :    185.69s CPU    186.69s WALL (       1 calls)
     forces       :      1.81s CPU      1.84s WALL (       1 calls)
     stress       :      9.95s CPU     10.07s WALL (       1 calls)

     Called by init_run:
     wfcinit      :      9.54s CPU      9.67s WALL (       1 calls)
     potinit      :      0.54s CPU      0.55s WALL (       1 calls)
     hinit0       :      0.63s CPU      0.63s WALL (       1 calls)

     Called by electrons:
     c_bands      :    159.46s CPU    160.05s WALL (       5 calls)
     sum_band     :     24.75s CPU     25.01s WALL (       5 calls)
     v_of_rho     :      0.31s CPU      0.32s WALL (       5 calls)
     newd         :      0.79s CPU      0.93s WALL (       5 calls)
     PAW_pot      :      0.73s CPU      0.74s WALL (       5 calls)
     mix_rho      :      0.02s CPU      0.03s WALL (       5 calls)

     Called by c_bands:
     init_us_2    :      4.75s CPU      4.89s WALL (    3380 calls)
     cegterg      :    153.10s CPU    153.57s WALL (    1300 calls)

     Called by *egterg:
     cdiaghg      :      1.02s CPU      1.03s WALL (    8299 calls)
     h_psi        :    147.91s CPU    148.29s WALL (    8819 calls)
     s_psi        :      1.77s CPU      1.79s WALL (    8819 calls)
     g_psi        :      1.30s CPU      1.31s WALL (    7259 calls)

     Called by h_psi:
     h_psi:calbec :      2.28s CPU      2.29s WALL (    8819 calls)
     vloc_psi     :    143.22s CPU    143.57s WALL (    8819 calls)
     add_vuspsi   :      1.87s CPU      1.89s WALL (    8819 calls)

     General routines
     calbec       :      3.19s CPU      3.20s WALL (   11419 calls)
     fft          :      0.22s CPU      0.22s WALL (      81 calls)
     ffts         :      0.01s CPU      0.01s WALL (       5 calls)
     fftw         :    149.07s CPU    149.43s WALL (   92196 calls)

     Parallel routines

     PWSCF        :   3m29.32s CPU   3m30.66s WALL


   This run was terminated on:  16:30:27  31Jan2024            

=------------------------------------------------------------------------------=
   JOB DONE.
=------------------------------------------------------------------------------=
