
     Program PWSCF v.6.6 starts on 31Jan2024 at 16:26:54 

     This program is part of the open-source Quantum ESPRESSO suite
     for quantum simulation of materials; please cite
         "P. Giannozzi et al., J. Phys.:Condens. Matter 21 395502 (2009);
         "P. Giannozzi et al., J. Phys.:Condens. Matter 29 465901 (2017);
          URL http://www.quantum-espresso.org", 
     in publications or presentations arising from this work. More details at
     http://www.quantum-espresso.org/quote

     Parallel version (MPI & OpenMP), running on       1 processor cores
     Number of MPI processes:                 1
     Threads/MPI process:                     1

     MPI processes distributed on     1 nodes
     Fft bands division:     nmany     =       1
     Waiting for input...
     Reading input from standard input

     Current dimensions of program PWSCF are:
     Max number of different atomic species (ntypx) = 10
     Max number of k-points (npk) =  40000
     Max angular momentum in pseudopotentials (lmaxx) =  3
     file K.pbe-spn-kjpaw_psl.1.0.0.UPF: wavefunction(s)  3S renormalized

     Subspace diagonalization in iterative solution of the eigenvalue problem:
     a serial algorithm will be used

     Message from routine set_sym_bl:
     NOTICE: Symmetry group for Bravais lattice is not a group (8) - symmetries are disabled

     G-vector sticks info
     --------------------
     sticks:   dense  smooth     PW     G-vecs:    dense   smooth      PW
     Sum         749     749    261                13115    13115    2659



     bravais-lattice index     =            0
     lattice parameter (alat)  =       6.4883  a.u.
     unit-cell volume          =     210.2708 (a.u.)^3
     number of atoms/cell      =            1
     number of atomic types    =            1
     number of electrons       =         9.00
     number of Kohn-Sham states=            9
     kinetic-energy cutoff     =      60.0000  Ry
     charge density cutoff     =     240.0000  Ry
     convergence threshold     =      1.0E-06
     mixing beta               =       0.7000
     number of iterations used =            8  plain     mixing
     Exchange-correlation= SLA PW PBX PBC
                           (   1   4   3   4   0   0   0)

     celldm(1)=   6.488335  celldm(2)=   0.000000  celldm(3)=   0.000000
     celldm(4)=   0.000000  celldm(5)=   0.000000  celldm(6)=   0.000000

     crystal axes: (cart. coord. in units of alat)
               a(1) = (   0.577350   0.577350   0.577350 )  
               a(2) = (  -0.577351   0.577351   0.577351 )  
               a(3) = (  -0.577351  -0.577351   0.577351 )  

     reciprocal axes: (cart. coord. in units 2 pi/alat)
               b(1) = (  0.866026 -0.000000  0.866025 )  
               b(2) = ( -0.866025  0.866025 -0.000000 )  
               b(3) = ( -0.000000 -0.866024  0.866024 )  


     PseudoPot. # 1 for K  read from file:
     /global/home/hpc5146/K.pbe-spn-kjpaw_psl.1.0.0.UPF
     MD5 check sum: 7d58810084cac21f60fbe77ea2b688fd
     Pseudo is Projector augmented-wave + core cor, Zval =  9.0
     Generated using "atomic" code by A. Dal Corso v.5.1
     Shape of augmentation charge: PSQ
     Using radial grid of 1165 points,  6 beta functions with: 
                l(1) =   0
                l(2) =   0
                l(3) =   1
                l(4) =   1
                l(5) =   2
                l(6) =   2
     Q(r) pseudized with 0 coefficients 


     atomic species   valence    mass     pseudopotential
        K              9.00    39.09830     K ( 1.00)

     No symmetry found



   Cartesian axes

     site n.     atom                  positions (alat units)
         1           K   tau(   1) = (   0.0000000   0.0000000   0.0000000  )

     number of k points=   260  Gaussian smearing, width (Ry)=  0.0100

     Number of k-points >= 100: set verbosity='high' to print them.

     Dense  grid:    13115 G-vectors     FFT dimensions: (  32,  32,  32)

     Estimated max dynamical RAM per process >     108.77 MB

     Check: negative core charge=   -0.000005

     Initial potential from superposition of free atoms

     starting charge    8.98117, renormalised to    9.00000
     Starting wfcs are    8 randomized atomic wfcs +    1 random wfcs
     Checking if some PAW data can be deallocated... 

     total cpu time spent up to now is        4.4 secs

     Self-consistent Calculation

     iteration #  1     ecut=    60.00 Ry     beta= 0.70
     Davidson diagonalization with overlap
     ethr =  1.00E-02,  avg # of iterations =  7.2

     Threshold (ethr) on eigenvalues was too large:
     Diagonalizing with lowered threshold

     Davidson diagonalization with overlap
     ethr =  4.09E-05,  avg # of iterations =  6.4

     total cpu time spent up to now is       25.4 secs

     total energy              =    -112.93573632 Ry
     estimated scf accuracy    <       0.00368100 Ry

     iteration #  2     ecut=    60.00 Ry     beta= 0.70
     Davidson diagonalization with overlap
     ethr =  4.09E-05,  avg # of iterations =  2.1

     total cpu time spent up to now is       33.0 secs

     total energy              =    -112.93651079 Ry
     estimated scf accuracy    <       0.00023902 Ry

     iteration #  3     ecut=    60.00 Ry     beta= 0.70
     Davidson diagonalization with overlap
     ethr =  2.66E-06,  avg # of iterations =  2.9

     total cpu time spent up to now is       40.1 secs

     total energy              =    -112.93654340 Ry
     estimated scf accuracy    <       0.00001442 Ry

     iteration #  4     ecut=    60.00 Ry     beta= 0.70
     Davidson diagonalization with overlap
     ethr =  1.60E-07,  avg # of iterations =  1.8

     total cpu time spent up to now is       46.6 secs

     End of self-consistent calculation

     Number of k-points >= 100: set verbosity='high' to print the bands.

     the Fermi energy is     7.5547 ev

!    total energy              =    -112.93654482 Ry

     total all-electron energy =     -1204.175257 Ry
     estimated scf accuracy    <       0.00000010 Ry
     smearing contrib. (-TS)   =      -0.00091766 Ry
     internal energy E=F+TS    =    -112.93562716 Ry

     The total energy is F=E-TS. E is the sum of the following terms:
     one-electron contribution =     -19.80105574 Ry
     hartree contribution      =      12.94519357 Ry
     xc contribution           =     -11.31194342 Ry
     ewald contribution        =     -39.34521735 Ry
     one-center paw contrib.   =     -55.42260422 Ry

     convergence has been achieved in   4 iterations

     Forces acting on atoms (cartesian axes, Ry/au):

     atom    1 type  1   force =     0.00000000    0.00000000    0.00000000

     Total force =     0.000000     Total SCF correction =     0.000030


     Computing stress (Cartesian axis) and pressure

          total   stress  (Ry/bohr**3)                   (kbar)     P=      144.09
   0.00097949   0.00000001   0.00000001          144.09        0.00        0.00
   0.00000001   0.00097951  -0.00000001            0.00      144.09       -0.00
   0.00000001  -0.00000001   0.00097948            0.00       -0.00      144.09


     init_run     :      3.29s CPU      3.46s WALL (       1 calls)
     electrons    :     41.66s CPU     42.29s WALL (       1 calls)
     forces       :      0.63s CPU      0.64s WALL (       1 calls)
     stress       :      3.43s CPU      3.49s WALL (       1 calls)

     Called by init_run:
     wfcinit      :      2.30s CPU      2.41s WALL (       1 calls)
     potinit      :      0.28s CPU      0.30s WALL (       1 calls)
     hinit0       :      0.61s CPU      0.62s WALL (       1 calls)

     Called by electrons:
     c_bands      :     34.67s CPU     35.13s WALL (       5 calls)
     sum_band     :      6.04s CPU      6.16s WALL (       5 calls)
     v_of_rho     :      0.09s CPU      0.09s WALL (       5 calls)
     newd         :      0.28s CPU      0.35s WALL (       5 calls)
     PAW_pot      :      0.79s CPU      0.81s WALL (       5 calls)
     mix_rho      :      0.01s CPU      0.01s WALL (       5 calls)

     Called by c_bands:
     init_us_2    :      1.81s CPU      1.88s WALL (    3380 calls)
     cegterg      :     32.70s CPU     33.06s WALL (    1300 calls)

     Called by *egterg:
     cdiaghg      :      0.86s CPU      0.91s WALL (    6331 calls)
     h_psi        :     30.04s CPU     30.36s WALL (    6851 calls)
     s_psi        :      0.48s CPU      0.49s WALL (    6851 calls)
     g_psi        :      0.42s CPU      0.43s WALL (    5291 calls)

     Called by h_psi:
     h_psi:calbec :      0.70s CPU      0.71s WALL (    6851 calls)
     vloc_psi     :     28.61s CPU     28.91s WALL (    6851 calls)
     add_vuspsi   :      0.51s CPU      0.53s WALL (    6851 calls)

     General routines
     calbec       :      0.99s CPU      1.01s WALL (    9451 calls)
     fft          :      0.05s CPU      0.05s WALL (      81 calls)
     ffts         :      0.00s CPU      0.00s WALL (       5 calls)
     fftw         :     28.63s CPU     28.91s WALL (   85032 calls)

     Parallel routines

     PWSCF        :     49.82s CPU     50.78s WALL


   This run was terminated on:  16:27:45  31Jan2024            

=------------------------------------------------------------------------------=
   JOB DONE.
=------------------------------------------------------------------------------=
