
     Program PWSCF v.6.6 starts on 31Jan2024 at 16:26:56 

     This program is part of the open-source Quantum ESPRESSO suite
     for quantum simulation of materials; please cite
         "P. Giannozzi et al., J. Phys.:Condens. Matter 21 395502 (2009);
         "P. Giannozzi et al., J. Phys.:Condens. Matter 29 465901 (2017);
          URL http://www.quantum-espresso.org", 
     in publications or presentations arising from this work. More details at
     http://www.quantum-espresso.org/quote

     Parallel version (MPI & OpenMP), running on       1 processor cores
     Number of MPI processes:                 1
     Threads/MPI process:                     1

     MPI processes distributed on     1 nodes
     Fft bands division:     nmany     =       1
     Waiting for input...
     Reading input from standard input

     Current dimensions of program PWSCF are:
     Max number of different atomic species (ntypx) = 10
     Max number of k-points (npk) =  40000
     Max angular momentum in pseudopotentials (lmaxx) =  3
     file K.pbe-spn-kjpaw_psl.1.0.0.UPF: wavefunction(s)  3S renormalized

     Subspace diagonalization in iterative solution of the eigenvalue problem:
     a serial algorithm will be used

     Message from routine set_sym_bl:
     NOTICE: Symmetry group for Bravais lattice is not a group (12) - symmetries are disabled

     G-vector sticks info
     --------------------
     sticks:   dense  smooth     PW     G-vecs:    dense   smooth      PW
     Sum        1489    1489    471                36273    36273    6459



     bravais-lattice index     =            0
     lattice parameter (alat)  =       9.0837  a.u.
     unit-cell volume          =     576.9837 (a.u.)^3
     number of atoms/cell      =            1
     number of atomic types    =            1
     number of electrons       =         9.00
     number of Kohn-Sham states=            9
     kinetic-energy cutoff     =      60.0000  Ry
     charge density cutoff     =     240.0000  Ry
     convergence threshold     =      1.0E-06
     mixing beta               =       0.7000
     number of iterations used =            8  plain     mixing
     Exchange-correlation= SLA PW PBX PBC
                           (   1   4   3   4   0   0   0)

     celldm(1)=   9.083675  celldm(2)=   0.000000  celldm(3)=   0.000000
     celldm(4)=   0.000000  celldm(5)=   0.000000  celldm(6)=   0.000000

     crystal axes: (cart. coord. in units of alat)
               a(1) = (   0.577350   0.577350   0.577350 )  
               a(2) = (  -0.577350   0.577351   0.577351 )  
               a(3) = (  -0.577351  -0.577351   0.577351 )  

     reciprocal axes: (cart. coord. in units 2 pi/alat)
               b(1) = (  0.866026 -0.000000  0.866025 )  
               b(2) = ( -0.866025  0.866025 -0.000000 )  
               b(3) = ( -0.000000 -0.866024  0.866024 )  


     PseudoPot. # 1 for K  read from file:
     /global/home/hpc5146/K.pbe-spn-kjpaw_psl.1.0.0.UPF
     MD5 check sum: 7d58810084cac21f60fbe77ea2b688fd
     Pseudo is Projector augmented-wave + core cor, Zval =  9.0
     Generated using "atomic" code by A. Dal Corso v.5.1
     Shape of augmentation charge: PSQ
     Using radial grid of 1165 points,  6 beta functions with: 
                l(1) =   0
                l(2) =   0
                l(3) =   1
                l(4) =   1
                l(5) =   2
                l(6) =   2
     Q(r) pseudized with 0 coefficients 


     atomic species   valence    mass     pseudopotential
        K              9.00    39.09830     K ( 1.00)

     No symmetry found



   Cartesian axes

     site n.     atom                  positions (alat units)
         1           K   tau(   1) = (   0.0000000   0.0000000   0.0000000  )

     number of k points=   260  Gaussian smearing, width (Ry)=  0.0100

     Number of k-points >= 100: set verbosity='high' to print them.

     Dense  grid:    36273 G-vectors     FFT dimensions: (  45,  45,  45)

     Estimated max dynamical RAM per process >     297.37 MB

     Check: negative core charge=   -0.000003

     Initial potential from superposition of free atoms

     starting charge    8.98117, renormalised to    9.00000
     Starting wfcs are    8 randomized atomic wfcs +    1 random wfcs
     Checking if some PAW data can be deallocated... 

     total cpu time spent up to now is       10.0 secs

     Self-consistent Calculation

     iteration #  1     ecut=    60.00 Ry     beta= 0.70
     Davidson diagonalization with overlap
     ethr =  1.00E-02,  avg # of iterations =  7.3

     Threshold (ethr) on eigenvalues was too large:
     Diagonalizing with lowered threshold

     Davidson diagonalization with overlap
     c_bands:  1 eigenvalues not converged
     ethr =  1.38E-05,  avg # of iterations =  9.6

     total cpu time spent up to now is       88.3 secs

     total energy              =    -113.00952052 Ry
     estimated scf accuracy    <       0.00121434 Ry

     iteration #  2     ecut=    60.00 Ry     beta= 0.70
     Davidson diagonalization with overlap
     ethr =  1.35E-05,  avg # of iterations =  2.4

     total cpu time spent up to now is      112.8 secs

     total energy              =    -113.00972221 Ry
     estimated scf accuracy    <       0.00009953 Ry

     iteration #  3     ecut=    60.00 Ry     beta= 0.70
     Davidson diagonalization with overlap
     ethr =  1.11E-06,  avg # of iterations =  4.1

     total cpu time spent up to now is      136.9 secs

     total energy              =    -113.00973271 Ry
     estimated scf accuracy    <       0.00000661 Ry

     iteration #  4     ecut=    60.00 Ry     beta= 0.70
     Davidson diagonalization with overlap
     ethr =  7.35E-08,  avg # of iterations =  2.0

     total cpu time spent up to now is      157.9 secs

     End of self-consistent calculation

     Number of k-points >= 100: set verbosity='high' to print the bands.

     the Fermi energy is     1.2530 ev

!    total energy              =    -113.00973333 Ry

     total all-electron energy =     -1204.248445 Ry
     estimated scf accuracy    <       0.00000006 Ry
     smearing contrib. (-TS)   =      -0.00079713 Ry
     internal energy E=F+TS    =    -113.00893621 Ry

     The total energy is F=E-TS. E is the sum of the following terms:
     one-electron contribution =     -38.46309966 Ry
     hartree contribution      =      20.12598432 Ry
     xc contribution           =     -11.14893077 Ry
     ewald contribution        =     -28.10371597 Ry
     one-center paw contrib.   =     -55.41917413 Ry

     convergence has been achieved in   4 iterations

     Forces acting on atoms (cartesian axes, Ry/au):

     atom    1 type  1   force =     0.00000000    0.00000000    0.00000000

     Total force =     0.000000     Total SCF correction =     0.000015


     Computing stress (Cartesian axis) and pressure

          total   stress  (Ry/bohr**3)                   (kbar)     P=       -4.14
  -0.00002812  -0.00000001   0.00000000           -4.14       -0.00        0.00
  -0.00000001  -0.00002812   0.00000000           -0.00       -4.14        0.00
   0.00000000   0.00000000  -0.00002812            0.00        0.00       -4.14


     init_run     :      9.00s CPU      9.16s WALL (       1 calls)
     electrons    :    146.95s CPU    147.93s WALL (       1 calls)
     forces       :      1.55s CPU      1.58s WALL (       1 calls)
     stress       :      8.46s CPU      8.56s WALL (       1 calls)

     Called by init_run:
     wfcinit      :      7.67s CPU      7.79s WALL (       1 calls)
     potinit      :      0.47s CPU      0.48s WALL (       1 calls)
     hinit0       :      0.58s CPU      0.58s WALL (       1 calls)

     Called by electrons:
     c_bands      :    125.64s CPU    126.26s WALL (       5 calls)
     sum_band     :     19.99s CPU     20.22s WALL (       5 calls)
     v_of_rho     :      0.25s CPU      0.27s WALL (       5 calls)
     newd         :      0.66s CPU      0.79s WALL (       5 calls)
     PAW_pot      :      0.71s CPU      0.73s WALL (       5 calls)
     mix_rho      :      0.02s CPU      0.02s WALL (       5 calls)

     Called by c_bands:
     init_us_2    :      4.10s CPU      4.23s WALL (    3380 calls)
     cegterg      :    120.83s CPU    121.30s WALL (    1300 calls)

     Called by *egterg:
     cdiaghg      :      0.92s CPU      0.94s WALL (    7650 calls)
     h_psi        :    115.95s CPU    116.33s WALL (    8170 calls)
     s_psi        :      1.40s CPU      1.42s WALL (    8170 calls)
     g_psi        :      1.10s CPU      1.11s WALL (    6610 calls)

     Called by h_psi:
     h_psi:calbec :      1.93s CPU      1.94s WALL (    8170 calls)
     vloc_psi     :    112.10s CPU    112.47s WALL (    8170 calls)
     add_vuspsi   :      1.44s CPU      1.46s WALL (    8170 calls)

     General routines
     calbec       :      2.73s CPU      2.74s WALL (   10770 calls)
     fft          :      0.17s CPU      0.17s WALL (      81 calls)
     ffts         :      0.01s CPU      0.01s WALL (       5 calls)
     fftw         :    116.60s CPU    116.98s WALL (   91038 calls)

     Parallel routines

     PWSCF        :   2m46.78s CPU   2m48.07s WALL


   This run was terminated on:  16:29:45  31Jan2024            

=------------------------------------------------------------------------------=
   JOB DONE.
=------------------------------------------------------------------------------=
