
     Program PWSCF v.6.6 starts on 31Jan2024 at 16:26:56 

     This program is part of the open-source Quantum ESPRESSO suite
     for quantum simulation of materials; please cite
         "P. Giannozzi et al., J. Phys.:Condens. Matter 21 395502 (2009);
         "P. Giannozzi et al., J. Phys.:Condens. Matter 29 465901 (2017);
          URL http://www.quantum-espresso.org", 
     in publications or presentations arising from this work. More details at
     http://www.quantum-espresso.org/quote

     Parallel version (MPI & OpenMP), running on       1 processor cores
     Number of MPI processes:                 1
     Threads/MPI process:                     1

     MPI processes distributed on     1 nodes
     Fft bands division:     nmany     =       1
     Waiting for input...
     Reading input from standard input

     Current dimensions of program PWSCF are:
     Max number of different atomic species (ntypx) = 10
     Max number of k-points (npk) =  40000
     Max angular momentum in pseudopotentials (lmaxx) =  3
     file K.pbe-spn-kjpaw_psl.1.0.0.UPF: wavefunction(s)  3S renormalized

     Subspace diagonalization in iterative solution of the eigenvalue problem:
     a serial algorithm will be used

     Message from routine set_sym_bl:
     NOTICE: Symmetry group for Bravais lattice is not a group (12) - symmetries are disabled

     G-vector sticks info
     --------------------
     sticks:   dense  smooth     PW     G-vecs:    dense   smooth      PW
     Sum        1219    1219    395                26851    26851    4921



     bravais-lattice index     =            0
     lattice parameter (alat)  =       8.2186  a.u.
     unit-cell volume          =     427.3338 (a.u.)^3
     number of atoms/cell      =            1
     number of atomic types    =            1
     number of electrons       =         9.00
     number of Kohn-Sham states=            9
     kinetic-energy cutoff     =      60.0000  Ry
     charge density cutoff     =     240.0000  Ry
     convergence threshold     =      1.0E-06
     mixing beta               =       0.7000
     number of iterations used =            8  plain     mixing
     Exchange-correlation= SLA PW PBX PBC
                           (   1   4   3   4   0   0   0)

     celldm(1)=   8.218567  celldm(2)=   0.000000  celldm(3)=   0.000000
     celldm(4)=   0.000000  celldm(5)=   0.000000  celldm(6)=   0.000000

     crystal axes: (cart. coord. in units of alat)
               a(1) = (   0.577350   0.577350   0.577350 )  
               a(2) = (  -0.577351   0.577351   0.577351 )  
               a(3) = (  -0.577351  -0.577351   0.577351 )  

     reciprocal axes: (cart. coord. in units 2 pi/alat)
               b(1) = (  0.866026 -0.000000  0.866025 )  
               b(2) = ( -0.866025  0.866025 -0.000000 )  
               b(3) = ( -0.000000 -0.866024  0.866024 )  


     PseudoPot. # 1 for K  read from file:
     /global/home/hpc5146/K.pbe-spn-kjpaw_psl.1.0.0.UPF
     MD5 check sum: 7d58810084cac21f60fbe77ea2b688fd
     Pseudo is Projector augmented-wave + core cor, Zval =  9.0
     Generated using "atomic" code by A. Dal Corso v.5.1
     Shape of augmentation charge: PSQ
     Using radial grid of 1165 points,  6 beta functions with: 
                l(1) =   0
                l(2) =   0
                l(3) =   1
                l(4) =   1
                l(5) =   2
                l(6) =   2
     Q(r) pseudized with 0 coefficients 


     atomic species   valence    mass     pseudopotential
        K              9.00    39.09830     K ( 1.00)

     No symmetry found



   Cartesian axes

     site n.     atom                  positions (alat units)
         1           K   tau(   1) = (   0.0000000   0.0000000   0.0000000  )

     number of k points=   260  Gaussian smearing, width (Ry)=  0.0100

     Number of k-points >= 100: set verbosity='high' to print them.

     Dense  grid:    26851 G-vectors     FFT dimensions: (  45,  45,  45)

     Estimated max dynamical RAM per process >     222.16 MB

     Check: negative core charge=   -0.000003

     Initial potential from superposition of free atoms

     starting charge    8.98117, renormalised to    9.00000
     Starting wfcs are    8 randomized atomic wfcs +    1 random wfcs
     Checking if some PAW data can be deallocated... 

     total cpu time spent up to now is        9.4 secs

     Self-consistent Calculation

     iteration #  1     ecut=    60.00 Ry     beta= 0.70
     Davidson diagonalization with overlap
     ethr =  1.00E-02,  avg # of iterations =  7.2

     Threshold (ethr) on eigenvalues was too large:
     Diagonalizing with lowered threshold

     Davidson diagonalization with overlap
     c_bands:  1 eigenvalues not converged
     c_bands:  1 eigenvalues not converged
     c_bands:  1 eigenvalues not converged
     c_bands:  1 eigenvalues not converged
     c_bands:  1 eigenvalues not converged
     ethr =  1.56E-05,  avg # of iterations = 10.0

     total cpu time spent up to now is       82.3 secs

     total energy              =    -113.00902487 Ry
     estimated scf accuracy    <       0.00136789 Ry

     iteration #  2     ecut=    60.00 Ry     beta= 0.70
     Davidson diagonalization with overlap
     ethr =  1.52E-05,  avg # of iterations =  2.1

     total cpu time spent up to now is      105.6 secs

     total energy              =    -113.00927943 Ry
     estimated scf accuracy    <       0.00010465 Ry

     iteration #  3     ecut=    60.00 Ry     beta= 0.70
     Davidson diagonalization with overlap
     ethr =  1.16E-06,  avg # of iterations =  3.1

     total cpu time spent up to now is      126.9 secs

     total energy              =    -113.00929106 Ry
     estimated scf accuracy    <       0.00000683 Ry

     iteration #  4     ecut=    60.00 Ry     beta= 0.70
     Davidson diagonalization with overlap
     ethr =  7.58E-08,  avg # of iterations =  2.0

     total cpu time spent up to now is      146.7 secs

     End of self-consistent calculation

     Number of k-points >= 100: set verbosity='high' to print the bands.

     the Fermi energy is     2.4984 ev

!    total energy              =    -113.00929175 Ry

     total all-electron energy =     -1204.248004 Ry
     estimated scf accuracy    <       0.00000006 Ry
     smearing contrib. (-TS)   =      -0.00075799 Ry
     internal energy E=F+TS    =    -113.00853376 Ry

     The total energy is F=E-TS. E is the sum of the following terms:
     one-electron contribution =     -33.43173827 Ry
     hartree contribution      =      18.08951396 Ry
     xc contribution           =     -11.18424751 Ry
     ewald contribution        =     -31.06198315 Ry
     one-center paw contrib.   =     -55.42007879 Ry

     convergence has been achieved in   4 iterations

     Forces acting on atoms (cartesian axes, Ry/au):

     atom    1 type  1   force =     0.00000000    0.00000000    0.00000000

     Total force =     0.000000     Total SCF correction =     0.000020


     Computing stress (Cartesian axis) and pressure

          total   stress  (Ry/bohr**3)                   (kbar)     P=        7.18
   0.00004878  -0.00000001   0.00000000            7.18       -0.00        0.00
  -0.00000001   0.00004878  -0.00000000           -0.00        7.18       -0.00
   0.00000000  -0.00000000   0.00004878            0.00       -0.00        7.18


     init_run     :      8.42s CPU      8.54s WALL (       1 calls)
     electrons    :    136.34s CPU    137.30s WALL (       1 calls)
     forces       :      1.16s CPU      1.19s WALL (       1 calls)
     stress       :      6.27s CPU      6.36s WALL (       1 calls)

     Called by init_run:
     wfcinit      :      7.30s CPU      7.38s WALL (       1 calls)
     potinit      :      0.40s CPU      0.41s WALL (       1 calls)
     hinit0       :      0.52s CPU      0.53s WALL (       1 calls)

     Called by electrons:
     c_bands      :    116.27s CPU    116.90s WALL (       5 calls)
     sum_band     :     18.87s CPU     19.09s WALL (       5 calls)
     v_of_rho     :      0.25s CPU      0.26s WALL (       5 calls)
     newd         :      0.50s CPU      0.60s WALL (       5 calls)
     PAW_pot      :      0.73s CPU      0.74s WALL (       5 calls)
     mix_rho      :      0.01s CPU      0.02s WALL (       5 calls)

     Called by c_bands:
     init_us_2    :      3.00s CPU      3.13s WALL (    3380 calls)
     cegterg      :    112.99s CPU    113.51s WALL (    1300 calls)

     Called by *egterg:
     cdiaghg      :      0.88s CPU      0.90s WALL (    7398 calls)
     h_psi        :    111.15s CPU    111.58s WALL (    7918 calls)
     s_psi        :      0.99s CPU      1.01s WALL (    7918 calls)
     g_psi        :      0.79s CPU      0.81s WALL (    6358 calls)

     Called by h_psi:
     h_psi:calbec :      1.39s CPU      1.40s WALL (    7918 calls)
     vloc_psi     :    108.37s CPU    108.78s WALL (    7918 calls)
     add_vuspsi   :      1.03s CPU      1.04s WALL (    7918 calls)

     General routines
     calbec       :      1.99s CPU      2.01s WALL (   10518 calls)
     fft          :      0.17s CPU      0.17s WALL (      81 calls)
     ffts         :      0.01s CPU      0.01s WALL (       5 calls)
     fftw         :    112.35s CPU    112.78s WALL (   89658 calls)

     Parallel routines

     PWSCF        :   2m33.02s CPU   2m34.23s WALL


   This run was terminated on:  16:29:31  31Jan2024            

=------------------------------------------------------------------------------=
   JOB DONE.
=------------------------------------------------------------------------------=
