
     Program PWSCF v.6.6 starts on 31Jan2024 at 16:26:56 

     This program is part of the open-source Quantum ESPRESSO suite
     for quantum simulation of materials; please cite
         "P. Giannozzi et al., J. Phys.:Condens. Matter 21 395502 (2009);
         "P. Giannozzi et al., J. Phys.:Condens. Matter 29 465901 (2017);
          URL http://www.quantum-espresso.org", 
     in publications or presentations arising from this work. More details at
     http://www.quantum-espresso.org/quote

     Parallel version (MPI & OpenMP), running on       1 processor cores
     Number of MPI processes:                 1
     Threads/MPI process:                     1

     MPI processes distributed on     1 nodes
     Fft bands division:     nmany     =       1
     Waiting for input...
     Reading input from standard input

     Current dimensions of program PWSCF are:
     Max number of different atomic species (ntypx) = 10
     Max number of k-points (npk) =  40000
     Max angular momentum in pseudopotentials (lmaxx) =  3
     file K.pbe-spn-kjpaw_psl.1.0.0.UPF: wavefunction(s)  3S renormalized

     Subspace diagonalization in iterative solution of the eigenvalue problem:
     a serial algorithm will be used

     Message from routine set_sym_bl:
     NOTICE: Symmetry group for Bravais lattice is not a group (16) - symmetries are disabled

     G-vector sticks info
     --------------------
     sticks:   dense  smooth     PW     G-vecs:    dense   smooth      PW
     Sum        1781    1781    553                47597    47597    8247



     bravais-lattice index     =            0
     lattice parameter (alat)  =       9.9488  a.u.
     unit-cell volume          =     758.0337 (a.u.)^3
     number of atoms/cell      =            1
     number of atomic types    =            1
     number of electrons       =         9.00
     number of Kohn-Sham states=            9
     kinetic-energy cutoff     =      60.0000  Ry
     charge density cutoff     =     240.0000  Ry
     convergence threshold     =      1.0E-06
     mixing beta               =       0.7000
     number of iterations used =            8  plain     mixing
     Exchange-correlation= SLA PW PBX PBC
                           (   1   4   3   4   0   0   0)

     celldm(1)=   9.948782  celldm(2)=   0.000000  celldm(3)=   0.000000
     celldm(4)=   0.000000  celldm(5)=   0.000000  celldm(6)=   0.000000

     crystal axes: (cart. coord. in units of alat)
               a(1) = (   0.577350   0.577350   0.577350 )  
               a(2) = (  -0.577350   0.577351   0.577351 )  
               a(3) = (  -0.577351  -0.577351   0.577351 )  

     reciprocal axes: (cart. coord. in units 2 pi/alat)
               b(1) = (  0.866026 -0.000000  0.866025 )  
               b(2) = ( -0.866025  0.866025 -0.000000 )  
               b(3) = ( -0.000000 -0.866024  0.866024 )  


     PseudoPot. # 1 for K  read from file:
     /global/home/hpc5146/K.pbe-spn-kjpaw_psl.1.0.0.UPF
     MD5 check sum: 7d58810084cac21f60fbe77ea2b688fd
     Pseudo is Projector augmented-wave + core cor, Zval =  9.0
     Generated using "atomic" code by A. Dal Corso v.5.1
     Shape of augmentation charge: PSQ
     Using radial grid of 1165 points,  6 beta functions with: 
                l(1) =   0
                l(2) =   0
                l(3) =   1
                l(4) =   1
                l(5) =   2
                l(6) =   2
     Q(r) pseudized with 0 coefficients 


     atomic species   valence    mass     pseudopotential
        K              9.00    39.09830     K ( 1.00)

     No symmetry found



   Cartesian axes

     site n.     atom                  positions (alat units)
         1           K   tau(   1) = (   0.0000000   0.0000000   0.0000000  )

     number of k points=   260  Gaussian smearing, width (Ry)=  0.0100

     Number of k-points >= 100: set verbosity='high' to print them.

     Dense  grid:    47597 G-vectors     FFT dimensions: (  50,  50,  50)

     Estimated max dynamical RAM per process >     390.46 MB

     Check: negative core charge=   -0.000002

     Initial potential from superposition of free atoms

     starting charge    8.98117, renormalised to    9.00000
     Starting wfcs are    8 randomized atomic wfcs +    1 random wfcs
     Checking if some PAW data can be deallocated... 

     total cpu time spent up to now is       13.7 secs

     Self-consistent Calculation

     iteration #  1     ecut=    60.00 Ry     beta= 0.70
     Davidson diagonalization with overlap
     ethr =  1.00E-02,  avg # of iterations =  7.0

     Threshold (ethr) on eigenvalues was too large:
     Diagonalizing with lowered threshold

     Davidson diagonalization with overlap
     c_bands:  1 eigenvalues not converged
     c_bands:  1 eigenvalues not converged
     c_bands:  1 eigenvalues not converged
     c_bands:  1 eigenvalues not converged
     c_bands:  1 eigenvalues not converged
     c_bands:  1 eigenvalues not converged
     c_bands:  1 eigenvalues not converged
     c_bands:  1 eigenvalues not converged
     c_bands:  1 eigenvalues not converged
     c_bands:  1 eigenvalues not converged
     c_bands:  1 eigenvalues not converged
     c_bands:  1 eigenvalues not converged
     c_bands:  1 eigenvalues not converged
     c_bands:  1 eigenvalues not converged
     c_bands:  1 eigenvalues not converged
     ethr =  1.63E-05,  avg # of iterations = 11.4

     total cpu time spent up to now is      124.8 secs

     total energy              =    -113.00243321 Ry
     estimated scf accuracy    <       0.00141115 Ry

     iteration #  2     ecut=    60.00 Ry     beta= 0.70
     Davidson diagonalization with overlap
     ethr =  1.57E-05,  avg # of iterations =  2.3

     total cpu time spent up to now is      159.0 secs

     total energy              =    -113.00263877 Ry
     estimated scf accuracy    <       0.00012308 Ry

     iteration #  3     ecut=    60.00 Ry     beta= 0.70
     Davidson diagonalization with overlap
     c_bands:  1 eigenvalues not converged
     c_bands:  1 eigenvalues not converged
     c_bands:  1 eigenvalues not converged
     c_bands:  1 eigenvalues not converged
     c_bands:  1 eigenvalues not converged
     ethr =  1.37E-06,  avg # of iterations =  5.6

     total cpu time spent up to now is      197.4 secs

     total energy              =    -113.00265119 Ry
     estimated scf accuracy    <       0.00000796 Ry

     iteration #  4     ecut=    60.00 Ry     beta= 0.70
     Davidson diagonalization with overlap
     ethr =  8.85E-08,  avg # of iterations =  2.2

     total cpu time spent up to now is      227.0 secs

     End of self-consistent calculation

     Number of k-points >= 100: set verbosity='high' to print the bands.

     the Fermi energy is     0.4277 ev

!    total energy              =    -113.00265187 Ry

     total all-electron energy =     -1204.241364 Ry
     estimated scf accuracy    <       0.00000008 Ry
     smearing contrib. (-TS)   =      -0.00086987 Ry
     internal energy E=F+TS    =    -113.00178200 Ry

     The total energy is F=E-TS. E is the sum of the following terms:
     one-electron contribution =     -42.68350945 Ry
     hartree contribution      =      21.88320536 Ry
     xc contribution           =     -11.12289436 Ry
     ewald contribution        =     -25.65992734 Ry
     one-center paw contrib.   =     -55.41865621 Ry

     convergence has been achieved in   4 iterations

     Forces acting on atoms (cartesian axes, Ry/au):

     atom    1 type  1   force =     0.00000000    0.00000000    0.00000000

     Total force =     0.000000     Total SCF correction =     0.000011


     Computing stress (Cartesian axis) and pressure

          total   stress  (Ry/bohr**3)                   (kbar)     P=       -6.92
  -0.00004707  -0.00000001  -0.00000000           -6.92       -0.00       -0.00
  -0.00000001  -0.00004707   0.00000000           -0.00       -6.92        0.00
  -0.00000000   0.00000000  -0.00004707           -0.00        0.00       -6.92


     init_run     :     12.65s CPU     12.84s WALL (       1 calls)
     electrons    :    212.22s CPU    213.33s WALL (       1 calls)
     forces       :      1.99s CPU      2.05s WALL (       1 calls)
     stress       :     10.96s CPU     11.11s WALL (       1 calls)

     Called by init_run:
     wfcinit      :     11.03s CPU     11.17s WALL (       1 calls)
     potinit      :      0.58s CPU      0.59s WALL (       1 calls)
     hinit0       :      0.66s CPU      0.66s WALL (       1 calls)

     Called by electrons:
     c_bands      :    182.13s CPU    182.81s WALL (       5 calls)
     sum_band     :     28.48s CPU     28.78s WALL (       5 calls)
     v_of_rho     :      0.34s CPU      0.35s WALL (       5 calls)
     newd         :      0.91s CPU      1.04s WALL (       5 calls)
     PAW_pot      :      0.71s CPU      0.72s WALL (       5 calls)
     mix_rho      :      0.02s CPU      0.03s WALL (       5 calls)

     Called by c_bands:
     init_us_2    :      5.40s CPU      5.55s WALL (    3380 calls)
     cegterg      :    175.66s CPU    176.17s WALL (    1300 calls)

     Called by *egterg:
     cdiaghg      :      1.02s CPU      1.04s WALL (    8415 calls)
     h_psi        :    169.90s CPU    170.37s WALL (    8935 calls)
     s_psi        :      1.92s CPU      1.93s WALL (    8935 calls)
     g_psi        :      1.49s CPU      1.50s WALL (    7375 calls)

     Called by h_psi:
     h_psi:calbec :      2.60s CPU      2.62s WALL (    8935 calls)
     vloc_psi     :    164.65s CPU    165.05s WALL (    8935 calls)
     add_vuspsi   :      1.99s CPU      2.01s WALL (    8935 calls)

     General routines
     calbec       :      3.63s CPU      3.65s WALL (   11535 calls)
     fft          :      0.24s CPU      0.24s WALL (      81 calls)
     ffts         :      0.01s CPU      0.01s WALL (       5 calls)
     fftw         :    170.74s CPU    171.12s WALL (   92152 calls)

     Parallel routines

     PWSCF        :   3m58.64s CPU   4m 0.18s WALL


   This run was terminated on:  16:30:57  31Jan2024            

=------------------------------------------------------------------------------=
   JOB DONE.
=------------------------------------------------------------------------------=
