
     Program PWSCF v.6.6 starts on 31Jan2024 at 16:26:56 

     This program is part of the open-source Quantum ESPRESSO suite
     for quantum simulation of materials; please cite
         "P. Giannozzi et al., J. Phys.:Condens. Matter 21 395502 (2009);
         "P. Giannozzi et al., J. Phys.:Condens. Matter 29 465901 (2017);
          URL http://www.quantum-espresso.org", 
     in publications or presentations arising from this work. More details at
     http://www.quantum-espresso.org/quote

     Parallel version (MPI & OpenMP), running on       1 processor cores
     Number of MPI processes:                 1
     Threads/MPI process:                     1

     MPI processes distributed on     1 nodes
     Fft bands division:     nmany     =       1
     Waiting for input...
     Reading input from standard input

     Current dimensions of program PWSCF are:
     Max number of different atomic species (ntypx) = 10
     Max number of k-points (npk) =  40000
     Max angular momentum in pseudopotentials (lmaxx) =  3
     file K.pbe-spn-kjpaw_psl.1.0.0.UPF: wavefunction(s)  3S renormalized

     Subspace diagonalization in iterative solution of the eigenvalue problem:
     a serial algorithm will be used

--------------------------------------------------------------------------------
NOTICE: Bravais lattice has wrong number (14) of symmetries - symmetries are disabled
--------------------------------------------------------------------------------
     Message from routine setup:
     using ibrav=0 with symmetry is DISCOURAGED, use correct ibrav instead

     G-vector sticks info
     --------------------
     sticks:   dense  smooth     PW     G-vecs:    dense   smooth      PW
     Sum        2101    2101    637                60911    60911   10185



     bravais-lattice index     =            0
     lattice parameter (alat)  =      10.8139  a.u.
     unit-cell volume          =     973.4790 (a.u.)^3
     number of atoms/cell      =            1
     number of atomic types    =            1
     number of electrons       =         9.00
     number of Kohn-Sham states=            9
     kinetic-energy cutoff     =      60.0000  Ry
     charge density cutoff     =     240.0000  Ry
     convergence threshold     =      1.0E-06
     mixing beta               =       0.7000
     number of iterations used =            8  plain     mixing
     Exchange-correlation= SLA PW PBX PBC
                           (   1   4   3   4   0   0   0)

     celldm(1)=  10.813907  celldm(2)=   0.000000  celldm(3)=   0.000000
     celldm(4)=   0.000000  celldm(5)=   0.000000  celldm(6)=   0.000000

     crystal axes: (cart. coord. in units of alat)
               a(1) = (   0.577350   0.577350   0.577350 )  
               a(2) = (  -0.577350   0.577351   0.577351 )  
               a(3) = (  -0.577351  -0.577351   0.577351 )  

     reciprocal axes: (cart. coord. in units 2 pi/alat)
               b(1) = (  0.866026 -0.000000  0.866025 )  
               b(2) = ( -0.866025  0.866025 -0.000000 )  
               b(3) = ( -0.000000 -0.866025  0.866024 )  


     PseudoPot. # 1 for K  read from file:
     /global/home/hpc5146/K.pbe-spn-kjpaw_psl.1.0.0.UPF
     MD5 check sum: 7d58810084cac21f60fbe77ea2b688fd
     Pseudo is Projector augmented-wave + core cor, Zval =  9.0
     Generated using "atomic" code by A. Dal Corso v.5.1
     Shape of augmentation charge: PSQ
     Using radial grid of 1165 points,  6 beta functions with: 
                l(1) =   0
                l(2) =   0
                l(3) =   1
                l(4) =   1
                l(5) =   2
                l(6) =   2
     Q(r) pseudized with 0 coefficients 


     atomic species   valence    mass     pseudopotential
        K              9.00    39.09830     K ( 1.00)

      2 Sym. Ops., with inversion, found



   Cartesian axes

     site n.     atom                  positions (alat units)
         1           K   tau(   1) = (   0.0000000   0.0000000   0.0000000  )

     number of k points=   260  Gaussian smearing, width (Ry)=  0.0100

     Number of k-points >= 100: set verbosity='high' to print them.

     Dense  grid:    60911 G-vectors     FFT dimensions: (  54,  54,  54)

     Estimated max dynamical RAM per process >     500.14 MB

     Check: negative core charge=   -0.000002

     Initial potential from superposition of free atoms

     starting charge    8.98117, renormalised to    9.00000
     Starting wfcs are    8 randomized atomic wfcs +    1 random wfcs
     Checking if some PAW data can be deallocated... 

     total cpu time spent up to now is       16.4 secs

     Self-consistent Calculation

     iteration #  1     ecut=    60.00 Ry     beta= 0.70
     Davidson diagonalization with overlap
     ethr =  1.00E-02,  avg # of iterations =  6.1

     Threshold (ethr) on eigenvalues was too large:
     Diagonalizing with lowered threshold

     Davidson diagonalization with overlap
     c_bands:  1 eigenvalues not converged
     c_bands:  1 eigenvalues not converged
     c_bands:  1 eigenvalues not converged
     c_bands:  1 eigenvalues not converged
     c_bands:  1 eigenvalues not converged
     c_bands:  1 eigenvalues not converged
     c_bands:  1 eigenvalues not converged
     c_bands:  1 eigenvalues not converged
     c_bands:  1 eigenvalues not converged
     c_bands:  1 eigenvalues not converged
     c_bands:  1 eigenvalues not converged
     c_bands:  1 eigenvalues not converged
     c_bands:  1 eigenvalues not converged
     c_bands:  1 eigenvalues not converged
     c_bands:  1 eigenvalues not converged
     c_bands:  1 eigenvalues not converged
     c_bands:  1 eigenvalues not converged
     c_bands:  1 eigenvalues not converged
     c_bands:  1 eigenvalues not converged
     c_bands:  1 eigenvalues not converged
     c_bands:  1 eigenvalues not converged
     c_bands:  1 eigenvalues not converged
     c_bands:  1 eigenvalues not converged
     c_bands:  1 eigenvalues not converged
     c_bands:  1 eigenvalues not converged
     ethr =  2.05E-05,  avg # of iterations = 13.1

     total cpu time spent up to now is      147.3 secs

     total energy              =    -112.99243690 Ry
     estimated scf accuracy    <       0.00180582 Ry

     iteration #  2     ecut=    60.00 Ry     beta= 0.70
     Davidson diagonalization with overlap
     ethr =  2.01E-05,  avg # of iterations =  2.4

     total cpu time spent up to now is      188.5 secs

     total energy              =    -112.99267791 Ry
     estimated scf accuracy    <       0.00016632 Ry

     iteration #  3     ecut=    60.00 Ry     beta= 0.70
     Davidson diagonalization with overlap
     c_bands:  1 eigenvalues not converged
     c_bands:  1 eigenvalues not converged
     c_bands:  1 eigenvalues not converged
     c_bands:  1 eigenvalues not converged
     c_bands:  1 eigenvalues not converged
     c_bands:  1 eigenvalues not converged
     c_bands:  1 eigenvalues not converged
     ethr =  1.85E-06,  avg # of iterations =  6.8

     total cpu time spent up to now is      239.7 secs

     total energy              =    -112.99269365 Ry
     estimated scf accuracy    <       0.00001030 Ry

     iteration #  4     ecut=    60.00 Ry     beta= 0.70
     Davidson diagonalization with overlap
     ethr =  1.14E-07,  avg # of iterations =  2.3

     total cpu time spent up to now is      273.8 secs

     End of self-consistent calculation

     Number of k-points >= 100: set verbosity='high' to print the bands.

     the Fermi energy is    -0.1409 ev

!    total energy              =    -112.99269472 Ry

     total all-electron energy =     -1204.231407 Ry
     estimated scf accuracy    <       0.00000009 Ry
     smearing contrib. (-TS)   =      -0.00096015 Ry
     internal energy E=F+TS    =    -112.99173457 Ry

     The total energy is F=E-TS. E is the sum of the following terms:
     one-electron contribution =     -46.27793069 Ry
     hartree contribution      =      23.41493737 Ry
     xc contribution           =     -11.10326190 Ry
     ewald contribution        =     -23.60710521 Ry
     one-center paw contrib.   =     -55.41837415 Ry

     convergence has been achieved in   4 iterations

     Forces acting on atoms (cartesian axes, Ry/au):

     atom    1 type  1   force =     0.00000000    0.00000000    0.00000000

     Total force =     0.000000     Total SCF correction =     0.000000


     Computing stress (Cartesian axis) and pressure

          total   stress  (Ry/bohr**3)                   (kbar)     P=       -6.80
  -0.00004626   0.00000000   0.00000000           -6.80        0.00        0.00
   0.00000000  -0.00004625  -0.00000000            0.00       -6.80       -0.00
   0.00000000  -0.00000000  -0.00004626            0.00       -0.00       -6.80


     init_run     :     15.35s CPU     15.60s WALL (       1 calls)
     electrons    :    256.06s CPU    257.35s WALL (       1 calls)
     forces       :      2.44s CPU      2.49s WALL (       1 calls)
     stress       :     13.35s CPU     13.53s WALL (       1 calls)

     Called by init_run:
     wfcinit      :     13.41s CPU     13.58s WALL (       1 calls)
     potinit      :      0.70s CPU      0.71s WALL (       1 calls)
     hinit0       :      0.75s CPU      0.76s WALL (       1 calls)

     Called by electrons:
     c_bands      :    220.38s CPU    221.15s WALL (       5 calls)
     sum_band     :     33.85s CPU     34.20s WALL (       5 calls)
     v_of_rho     :      0.42s CPU      0.43s WALL (       5 calls)
     newd         :      1.11s CPU      1.30s WALL (       5 calls)
     PAW_pot      :      0.71s CPU      0.72s WALL (       5 calls)
     mix_rho      :      0.03s CPU      0.04s WALL (       5 calls)

     Called by c_bands:
     init_us_2    :      6.71s CPU      6.87s WALL (    3380 calls)
     cegterg      :    212.36s CPU    212.90s WALL (    1300 calls)

     Called by *egterg:
     cdiaghg      :      1.07s CPU      1.08s WALL (    9025 calls)
     h_psi        :    204.25s CPU    204.68s WALL (    9545 calls)
     s_psi        :      2.50s CPU      2.52s WALL (    9545 calls)
     g_psi        :      1.89s CPU      1.91s WALL (    7985 calls)

     Called by h_psi:
     h_psi:calbec :      3.33s CPU      3.35s WALL (    9545 calls)
     vloc_psi     :    197.56s CPU    197.95s WALL (    9545 calls)
     add_vuspsi   :      2.56s CPU      2.58s WALL (    9545 calls)

     General routines
     calbec       :      4.57s CPU      4.60s WALL (   12145 calls)
     fft          :      0.28s CPU      0.28s WALL (      81 calls)
     ffts         :      0.02s CPU      0.02s WALL (       5 calls)
     fftw         :    202.98s CPU    203.35s WALL (   92392 calls)

     Parallel routines

     PWSCF        :   4m48.03s CPU   4m49.83s WALL


   This run was terminated on:  16:31:46  31Jan2024            

=------------------------------------------------------------------------------=
   JOB DONE.
=------------------------------------------------------------------------------=
