
     Program PWSCF v.6.6 starts on 31Jan2024 at 16:26:56 

     This program is part of the open-source Quantum ESPRESSO suite
     for quantum simulation of materials; please cite
         "P. Giannozzi et al., J. Phys.:Condens. Matter 21 395502 (2009);
         "P. Giannozzi et al., J. Phys.:Condens. Matter 29 465901 (2017);
          URL http://www.quantum-espresso.org", 
     in publications or presentations arising from this work. More details at
     http://www.quantum-espresso.org/quote

     Parallel version (MPI & OpenMP), running on       1 processor cores
     Number of MPI processes:                 1
     Threads/MPI process:                     1

     MPI processes distributed on     1 nodes
     Fft bands division:     nmany     =       1
     Waiting for input...
     Reading input from standard input

     Current dimensions of program PWSCF are:
     Max number of different atomic species (ntypx) = 10
     Max number of k-points (npk) =  40000
     Max angular momentum in pseudopotentials (lmaxx) =  3
     file K.pbe-spn-kjpaw_psl.1.0.0.UPF: wavefunction(s)  3S renormalized

     Subspace diagonalization in iterative solution of the eigenvalue problem:
     a serial algorithm will be used

     Message from routine set_sym_bl:
     NOTICE: Symmetry group for Bravais lattice is not a group (16) - symmetries are disabled

     G-vector sticks info
     --------------------
     sticks:   dense  smooth     PW     G-vecs:    dense   smooth      PW
     Sum        1937    1937    599                54053    54053    9189



     bravais-lattice index     =            0
     lattice parameter (alat)  =      10.3813  a.u.
     unit-cell volume          =     861.2705 (a.u.)^3
     number of atoms/cell      =            1
     number of atomic types    =            1
     number of electrons       =         9.00
     number of Kohn-Sham states=            9
     kinetic-energy cutoff     =      60.0000  Ry
     charge density cutoff     =     240.0000  Ry
     convergence threshold     =      1.0E-06
     mixing beta               =       0.7000
     number of iterations used =            8  plain     mixing
     Exchange-correlation= SLA PW PBX PBC
                           (   1   4   3   4   0   0   0)

     celldm(1)=  10.381344  celldm(2)=   0.000000  celldm(3)=   0.000000
     celldm(4)=   0.000000  celldm(5)=   0.000000  celldm(6)=   0.000000

     crystal axes: (cart. coord. in units of alat)
               a(1) = (   0.577350   0.577350   0.577350 )  
               a(2) = (  -0.577350   0.577351   0.577351 )  
               a(3) = (  -0.577351  -0.577351   0.577351 )  

     reciprocal axes: (cart. coord. in units 2 pi/alat)
               b(1) = (  0.866026 -0.000000  0.866025 )  
               b(2) = ( -0.866025  0.866025 -0.000000 )  
               b(3) = ( -0.000000 -0.866025  0.866024 )  


     PseudoPot. # 1 for K  read from file:
     /global/home/hpc5146/K.pbe-spn-kjpaw_psl.1.0.0.UPF
     MD5 check sum: 7d58810084cac21f60fbe77ea2b688fd
     Pseudo is Projector augmented-wave + core cor, Zval =  9.0
     Generated using "atomic" code by A. Dal Corso v.5.1
     Shape of augmentation charge: PSQ
     Using radial grid of 1165 points,  6 beta functions with: 
                l(1) =   0
                l(2) =   0
                l(3) =   1
                l(4) =   1
                l(5) =   2
                l(6) =   2
     Q(r) pseudized with 0 coefficients 


     atomic species   valence    mass     pseudopotential
        K              9.00    39.09830     K ( 1.00)

     No symmetry found



   Cartesian axes

     site n.     atom                  positions (alat units)
         1           K   tau(   1) = (   0.0000000   0.0000000   0.0000000  )

     number of k points=   260  Gaussian smearing, width (Ry)=  0.0100

     Number of k-points >= 100: set verbosity='high' to print them.

     Dense  grid:    54053 G-vectors     FFT dimensions: (  54,  54,  54)

     Estimated max dynamical RAM per process >     444.47 MB

     Check: negative core charge=   -0.000002

     Initial potential from superposition of free atoms

     starting charge    8.98117, renormalised to    9.00000
     Starting wfcs are    8 randomized atomic wfcs +    1 random wfcs
     Checking if some PAW data can be deallocated... 

     total cpu time spent up to now is       16.1 secs

     Self-consistent Calculation

     iteration #  1     ecut=    60.00 Ry     beta= 0.70
     Davidson diagonalization with overlap
     ethr =  1.00E-02,  avg # of iterations =  6.9

     Threshold (ethr) on eigenvalues was too large:
     Diagonalizing with lowered threshold

     Davidson diagonalization with overlap
     c_bands:  1 eigenvalues not converged
     c_bands:  1 eigenvalues not converged
     c_bands:  1 eigenvalues not converged
     c_bands:  1 eigenvalues not converged
     c_bands:  1 eigenvalues not converged
     c_bands:  1 eigenvalues not converged
     c_bands:  1 eigenvalues not converged
     c_bands:  1 eigenvalues not converged
     c_bands:  1 eigenvalues not converged
     ethr =  1.81E-05,  avg # of iterations = 11.9

     total cpu time spent up to now is      147.6 secs

     total energy              =    -112.99761971 Ry
     estimated scf accuracy    <       0.00159361 Ry

     iteration #  2     ecut=    60.00 Ry     beta= 0.70
     Davidson diagonalization with overlap
     ethr =  1.77E-05,  avg # of iterations =  2.2

     total cpu time spent up to now is      188.2 secs

     total energy              =    -112.99783887 Ry
     estimated scf accuracy    <       0.00014257 Ry

     iteration #  3     ecut=    60.00 Ry     beta= 0.70
     Davidson diagonalization with overlap
     c_bands:  1 eigenvalues not converged
     c_bands:  1 eigenvalues not converged
     c_bands:  1 eigenvalues not converged
     ethr =  1.58E-06,  avg # of iterations =  6.2

     total cpu time spent up to now is      236.8 secs

     total energy              =    -112.99785262 Ry
     estimated scf accuracy    <       0.00000902 Ry

     iteration #  4     ecut=    60.00 Ry     beta= 0.70
     Davidson diagonalization with overlap
     c_bands:  1 eigenvalues not converged
     ethr =  1.00E-07,  avg # of iterations =  2.2

     total cpu time spent up to now is      270.6 secs

     End of self-consistent calculation

     Number of k-points >= 100: set verbosity='high' to print the bands.

     the Fermi energy is     0.1185 ev

!    total energy              =    -112.99785347 Ry

     total all-electron energy =     -1204.236565 Ry
     estimated scf accuracy    <       0.00000009 Ry
     smearing contrib. (-TS)   =      -0.00091271 Ry
     internal energy E=F+TS    =    -112.99694076 Ry

     The total energy is F=E-TS. E is the sum of the following terms:
     one-electron contribution =     -44.54954482 Ry
     hartree contribution      =      22.67423624 Ry
     xc contribution           =     -11.11239169 Ry
     ewald contribution        =     -24.59074854 Ry
     one-center paw contrib.   =     -55.41849195 Ry

     convergence has been achieved in   4 iterations

     Forces acting on atoms (cartesian axes, Ry/au):

     atom    1 type  1   force =     0.00000000    0.00000000    0.00000000

     Total force =     0.000000     Total SCF correction =     0.000019


     Computing stress (Cartesian axis) and pressure

          total   stress  (Ry/bohr**3)                   (kbar)     P=       -7.06
  -0.00004798  -0.00000001  -0.00000000           -7.06       -0.00       -0.00
  -0.00000001  -0.00004798   0.00000000           -0.00       -7.06        0.00
  -0.00000000   0.00000000  -0.00004798           -0.00        0.00       -7.06


     init_run     :     15.06s CPU     15.25s WALL (       1 calls)
     electrons    :    253.37s CPU    254.52s WALL (       1 calls)
     forces       :      2.17s CPU      2.22s WALL (       1 calls)
     stress       :     11.76s CPU     11.91s WALL (       1 calls)

     Called by init_run:
     wfcinit      :     13.27s CPU     13.40s WALL (       1 calls)
     potinit      :      0.64s CPU      0.66s WALL (       1 calls)
     hinit0       :      0.70s CPU      0.71s WALL (       1 calls)

     Called by electrons:
     c_bands      :    217.93s CPU    218.60s WALL (       5 calls)
     sum_band     :     33.71s CPU     34.04s WALL (       5 calls)
     v_of_rho     :      0.42s CPU      0.43s WALL (       5 calls)
     newd         :      1.00s CPU      1.16s WALL (       5 calls)
     PAW_pot      :      0.71s CPU      0.72s WALL (       5 calls)
     mix_rho      :      0.03s CPU      0.04s WALL (       5 calls)

     Called by c_bands:
     init_us_2    :      5.95s CPU      6.11s WALL (    3380 calls)
     cegterg      :    210.96s CPU    211.42s WALL (    1300 calls)

     Called by *egterg:
     cdiaghg      :      1.02s CPU      1.03s WALL (    8683 calls)
     h_psi        :    205.26s CPU    205.66s WALL (    9203 calls)
     s_psi        :      2.20s CPU      2.22s WALL (    9203 calls)
     g_psi        :      1.66s CPU      1.67s WALL (    7643 calls)

     Called by h_psi:
     h_psi:calbec :      2.94s CPU      2.96s WALL (    9203 calls)
     vloc_psi     :    199.33s CPU    199.68s WALL (    9203 calls)
     add_vuspsi   :      2.28s CPU      2.30s WALL (    9203 calls)

     General routines
     calbec       :      4.04s CPU      4.07s WALL (   11803 calls)
     fft          :      0.28s CPU      0.28s WALL (      81 calls)
     ffts         :      0.02s CPU      0.02s WALL (       5 calls)
     fftw         :    205.47s CPU    205.80s WALL (   92046 calls)

     Parallel routines

     PWSCF        :   4m43.19s CPU   4m44.76s WALL


   This run was terminated on:  16:31:41  31Jan2024            

=------------------------------------------------------------------------------=
   JOB DONE.
=------------------------------------------------------------------------------=
